 Gaussian 09, Revision D.01,
 Gaussian 09:  ES64L-G09RevD.01 24-Apr-2013

 ----------------------------------------------------------------------
 #p CAM-B3LYP/6-311++G** nosym density=current geom=allcheck EmpiricalD
 ispersion=GD3 SCRF=(CPCM, solvent=water) IOP(10/74=10) TD=(NSTATES=10,
 ROOT=1,NONEQ) iop(3/119=0810000000) iop(3/120=0810000000)
 ----------------------------------------------------------------------

 Structure from the checkpoint file:  "checkpointCPCMES_wat.chk"
 ---
 DHE
 ---
 Charge =  0 Multiplicity = 1

                          Input orientation:
 ---------------------------------------------------------------------
 Center     Atomic      Atomic             Coordinates (Angstroms)
 Number     Number       Type             X           Y           Z
 ---------------------------------------------------------------------
      1          8           0       -7.190529   -1.869702    3.814790
      2          6           0        0.279204   -0.216428   -0.293763
      3          6           0        0.096706   -0.209620    1.247592
      4          6           0        1.833008   -0.257624   -0.386971
      5          6           0        1.121280    0.807275    1.762421
      6          6           0        2.298976    0.693313    0.757949
      7          6           0       -0.476983   -1.451211   -0.814163
      8          6           0       -1.341532   -0.109402    1.670053
      9          6           0        2.510343    0.077859   -1.735392
     10          6           0       -2.289004   -0.913219    0.889367
     11          6           0       -3.779652   -0.956564    1.298071
     12          6           0       -0.287807    1.063492   -0.937387
     13          6           0       -1.862595   -1.556670   -0.219443
     14          6           0       -4.073331   -0.207358    2.596462
     15          6           0       -4.227311   -2.437487    1.492994
     16          6           0       -1.759100    0.589864    2.748609
     17          6           0        2.077403   -0.856963   -2.879861
     18          6           0       -4.596546   -0.282702    0.160062
     19          6           0       -5.465280   -0.352337    3.162013
     20          6           0       -3.130538    0.518425    3.220739
     21          6           0       -5.654778   -2.589499    2.033562
     22          6           0        4.009900    0.016557   -1.577409
     23          6           0       -5.832655   -1.825919    3.344558
     24          6           0        4.852353    1.033395   -1.749006
     25          6           0        6.347974    0.982111   -1.563251
     26          6           0        7.093277    1.377286   -2.868106
     27          6           0        6.708425    0.450414   -4.030458
     28          6           0        8.619208    1.383161   -2.691905
     29          6           0        6.735359    1.876978   -0.368931
     30          1           0       -7.429216   -2.791233    3.967651
     31          1           0        0.434955   -1.205098    1.577594
     32          1           0        2.132246   -1.282000   -0.124987
     33          1           0        1.424616    0.599982    2.790997
     34          1           0        0.697188    1.815127    1.751813
     35          1           0        2.554510    1.673747    0.347044
     36          1           0        3.207308    0.313715    1.229335
     37          1           0        0.098550   -2.359027   -0.582248
     38          1           0       -0.571219   -1.432826   -1.903734
     39          1           0        2.243267    1.105597   -2.007614
     40          1           0       -0.154781    1.039505   -2.021615
     41          1           0       -1.356242    1.162610   -0.735676
     42          1           0        0.208808    1.961600   -0.563337
     43          1           0       -2.563684   -2.165273   -0.782468
     44          1           0       -3.526053   -2.910953    2.188652
     45          1           0       -4.135355   -2.971385    0.543914
     46          1           0       -1.051222    1.175995    3.324276
     47          1           0        2.648367   -0.638584   -3.786367
     48          1           0        2.253339   -1.904645   -2.614502
     49          1           0        1.018700   -0.743734   -3.117572
     50          1           0       -4.259861    0.747363    0.019573
     51          1           0       -4.443283   -0.821215   -0.778233
     52          1           0       -5.666868   -0.263913    0.369976
     53          1           0       -6.212377    0.092229    2.493103
     54          1           0       -5.539834    0.168002    4.119900
     55          1           0       -3.380973    1.045156    4.137448
     56          1           0       -5.875918   -3.650756    2.191298
     57          1           0       -6.387946   -2.215120    1.311679
     58          1           0        4.410739   -0.960195   -1.299674
     59          1           0       -5.171311   -2.261654    4.107082
     60          1           0        4.450122    2.010418   -2.023952
     61          1           0        6.630552   -0.052195   -1.323276
     62          1           0        6.776829    2.398250   -3.125161
     63          1           0        6.999040   -0.582827   -3.807680
     64          1           0        5.632575    0.458694   -4.216828
     65          1           0        7.217554    0.750015   -4.951174
     66          1           0        8.971189    0.403439   -2.349043
     67          1           0        9.113206    1.599175   -3.643795
     68          1           0        8.952923    2.132222   -1.971180
     69          1           0        6.151635    1.606305    0.514698
     70          1           0        7.792594    1.781622   -0.112999
     71          1           0        6.534655    2.930140   -0.594516
 ---------------------------------------------------------------------

 SCF Done:  E(RCAM-B3LYP) =  -1166.24707059     A.U. after   24 cycles

 Excitation energies and oscillator strengths:

 Excited state symmetry could not be determined.
 Excited State   1:      Singlet-?Sym    3.9963 eV  310.25 nm  f=0.3955  <S**2>=0.000
     109 ->110         0.68014
     109 ->114         0.11534
 This state for optimization and/or second-order correction.
 Total Energy, E(TD-HF/TD-KS) =  -1166.10020925
 Copying the excited state density for this state as the 1-particle RhoCI density.

 Excited state symmetry could not be determined.
 Excited State   2:      Singlet-?Sym    5.3757 eV  230.64 nm  f=0.0030  <S**2>=0.000
     109 ->111         0.48230
     109 ->112         0.21545
     109 ->113         0.17579
     109 ->115         0.14852
     109 ->116         0.12169
     109 ->118        -0.20586
     109 ->149        -0.12697

 Excited state symmetry could not be determined.
 Excited State   3:      Singlet-?Sym    5.8031 eV  213.65 nm  f=0.0102  <S**2>=0.000
     109 ->113         0.35640
     109 ->114         0.29561
     109 ->116         0.16922
     109 ->117         0.29853
     109 ->120         0.10724
     109 ->127        -0.12884

 Excited state symmetry could not be determined.
 Excited State   4:      Singlet-?Sym    5.9140 eV  209.65 nm  f=0.0365  <S**2>=0.000
     109 ->111        -0.16295
     109 ->112        -0.12116
     109 ->113         0.37094
     109 ->114        -0.23701
     109 ->116         0.22035
     109 ->117        -0.18318
     109 ->122        -0.13241
     109 ->126         0.11720
     109 ->141         0.15841
     109 ->142        -0.14232

 Excited state symmetry could not be determined.
 Excited State   5:      Singlet-?Sym    6.0260 eV  205.75 nm  f=0.2034  <S**2>=0.000
     107 ->110         0.25713
     109 ->114         0.22887
     109 ->115         0.16874
     109 ->117         0.14470
     109 ->120        -0.13361
     109 ->123         0.12208
     109 ->125        -0.13889
     109 ->127        -0.12641
     109 ->133        -0.14562
     109 ->135        -0.10764
     109 ->139         0.14819
     109 ->141         0.24679
     109 ->142        -0.14669
     109 ->150         0.10027

 Excited state symmetry could not be determined.
 Excited State   6:      Singlet-?Sym    6.1611 eV  201.24 nm  f=0.0344  <S**2>=0.000
     107 ->110         0.60871
     107 ->114         0.11316
     109 ->114        -0.10064
     109 ->141        -0.11402

 Excited state symmetry could not be determined.
 Excited State   7:      Singlet-?Sym    6.2916 eV  197.06 nm  f=0.0295  <S**2>=0.000
     109 ->112        -0.30299
     109 ->113         0.12627
     109 ->115         0.32405
     109 ->119        -0.24715
     109 ->121         0.13612
     109 ->122         0.11306
     109 ->123         0.16989
     109 ->124        -0.11890
     109 ->125         0.17472
     109 ->141        -0.15170

 Excited state symmetry could not be determined.
 Excited State   8:      Singlet-?Sym    6.3929 eV  193.94 nm  f=0.0030  <S**2>=0.000
     109 ->111         0.13303
     109 ->112        -0.11370
     109 ->115         0.19340
     109 ->119         0.20671
     109 ->120         0.43689
     109 ->123         0.13833
     109 ->124         0.25518
     109 ->165         0.10809

 Excited state symmetry could not be determined.
 Excited State   9:      Singlet-?Sym    6.4338 eV  192.71 nm  f=0.0060  <S**2>=0.000
     101 ->110        -0.29627
     103 ->110        -0.15522
     104 ->110         0.25345
     105 ->110        -0.17872
     106 ->110        -0.42074
     108 ->110        -0.15185

 Excited state symmetry could not be determined.
 Excited State  10:      Singlet-?Sym    6.5506 eV  189.27 nm  f=0.0039  <S**2>=0.000
     109 ->114         0.19527
     109 ->117        -0.35971
     109 ->119         0.17727
     109 ->121         0.40937
     109 ->125        -0.11464
     109 ->133         0.11122

 Alpha  occ. eigenvalues --  -19.25964 -10.35502 -10.32558 -10.31100 -10.30929
 Alpha  occ. eigenvalues --  -10.30772 -10.30747 -10.30225 -10.30182 -10.30059
 Alpha  occ. eigenvalues --  -10.30019 -10.29950 -10.29900 -10.29891 -10.29788
 Alpha  occ. eigenvalues --  -10.29711 -10.29694 -10.29628 -10.29612 -10.29291
 Alpha  occ. eigenvalues --  -10.29200 -10.28917 -10.28908 -10.28728 -10.28429
 Alpha  occ. eigenvalues --  -10.28409 -10.28205 -10.28088 -10.27997  -1.17446
 Alpha  occ. eigenvalues --   -1.03208  -1.00942  -0.98023  -0.96523  -0.94679
 Alpha  occ. eigenvalues --   -0.94104  -0.91477  -0.90573  -0.89504  -0.87492
 Alpha  occ. eigenvalues --   -0.85775  -0.85423  -0.83214  -0.82163  -0.82095
 Alpha  occ. eigenvalues --   -0.81095  -0.77629  -0.77360  -0.75303  -0.74324
 Alpha  occ. eigenvalues --   -0.73575  -0.70738  -0.68880  -0.68771  -0.68546
 Alpha  occ. eigenvalues --   -0.66942  -0.65713  -0.63999  -0.62675  -0.61379
 Alpha  occ. eigenvalues --   -0.60170  -0.59712  -0.58579  -0.58434  -0.57382
 Alpha  occ. eigenvalues --   -0.57247  -0.56801  -0.55687  -0.55511  -0.55099
 Alpha  occ. eigenvalues --   -0.54404  -0.53955  -0.53544  -0.52962  -0.52528
 Alpha  occ. eigenvalues --   -0.51999  -0.51731  -0.51418  -0.50967  -0.50483
 Alpha  occ. eigenvalues --   -0.50094  -0.49933  -0.49272  -0.49095  -0.48987
 Alpha  occ. eigenvalues --   -0.48524  -0.48321  -0.47634  -0.47190  -0.46390
 Alpha  occ. eigenvalues --   -0.45880  -0.45569  -0.45255  -0.44730  -0.43968
 Alpha  occ. eigenvalues --   -0.43790  -0.43380  -0.42875  -0.42678  -0.42211
 Alpha  occ. eigenvalues --   -0.41736  -0.41580  -0.41307  -0.40469  -0.39609
 Alpha  occ. eigenvalues --   -0.39245  -0.37053  -0.34788  -0.28784
 Alpha virt. eigenvalues --    0.02654   0.02889   0.03387   0.03635   0.03770
 Alpha virt. eigenvalues --    0.03967   0.04340   0.04506   0.04978   0.05405
 Alpha virt. eigenvalues --    0.05508   0.05559   0.05904   0.06303   0.06497

 Mulliken charges:
               1
     1  O   -0.291821
     2  C    0.448433
     3  C   -0.358506
     4  C    0.019619
     5  C   -0.552378
     6  C   -0.696611
     7  C   -0.533816
     8  C    0.429197
     9  C   -0.095482
    10  C    0.610510
    11  C    0.241752
    12  C   -0.768966
    13  C   -0.421693
    14  C   -0.047675
    15  C   -0.379044
    16  C   -0.233256
    17  C   -0.574557
    18  C   -0.718356
    19  C   -0.195213
    20  C   -0.588435
    21  C   -0.393810
    22  C   -0.173955
    23  C   -0.659749
    24  C   -0.137044
    25  C    0.116661
    26  C    0.058693
    27  C   -0.600150
    28  C   -0.630618
    29  C   -0.664830
    30  H    0.288158
    31  H    0.265575
    32  H    0.226349
    33  H    0.185206
    34  H    0.188513
    35  H    0.174336
    36  H    0.176246
    37  H    0.208456
    38  H    0.146467
    39  H    0.185594
    40  H    0.179515
    41  H    0.140238
    42  H    0.205678
    43  H    0.239114
    44  H    0.227275
    45  H    0.144174
    46  H    0.185744
    47  H    0.183224
    48  H    0.185580
    49  H    0.138101
    50  H    0.187453
    51  H    0.178018
    52  H    0.145243
    53  H    0.222237
    54  H    0.206598
    55  H    0.218670
    56  H    0.210668
    57  H    0.202761
    58  H    0.204292
    59  H    0.207517
    60  H    0.202957
    61  H    0.187903
    62  H    0.165414
    63  H    0.156650
    64  H    0.140102
    65  H    0.152698
    66  H    0.160815
    67  H    0.152889
    68  H    0.148384
    69  H    0.147459
    70  H    0.141032
    71  H    0.177795
 Sum of Mulliken charges =   0.00000

 Dipole moment (field-independent basis, Debye):
    X=              1.6023    Y=             -2.5519    Z=             -1.5264  Tot=              3.3778
 Quadrupole moment (field-independent basis, Debye-Ang):
   XX=           -194.2536   YY=           -173.3986   ZZ=           -189.4291
   XY=             14.9027   XZ=              8.7445   YZ=             -6.2246

 Normal termination of Gaussian 09 at Mon Feb 17 12:13:14 2020.
