 Gaussian 09, Revision D.01,
 Gaussian 09:  ES64L-G09RevD.01 24-Apr-2013

 ----------------------------------------------------------------------
 #p CAM-B3LYP/6-311++G** nosym density=current geom=allcheck EmpiricalD
 ispersion=GD3 SCRF=(CPCM, solvent=acetonitrile) IOP(10/74=10) TD=(NSTA
 TES=10,ROOT=1,NONEQ) iop(3/119=0810000000) iop(3/120=0810000000)
 ----------------------------------------------------------------------

 Structure from the checkpoint file:  "checkpointCPCMES.chk"
 ---
 DHE
 ---
 Charge =  0 Multiplicity = 1

                          Input orientation:
 ---------------------------------------------------------------------
 Center     Atomic      Atomic             Coordinates (Angstroms)
 Number     Number       Type             X           Y           Z
 ---------------------------------------------------------------------
      1          8           0       -7.190438   -1.869559    3.814699
      2          6           0        0.279192   -0.216438   -0.293837
      3          6           0        0.096720   -0.209746    1.247523
      4          6           0        1.832989   -0.257673   -0.387095
      5          6           0        1.121348    0.807074    1.762386
      6          6           0        2.299028    0.693145    0.757894
      7          6           0       -0.477053   -1.451153   -0.814314
      8          6           0       -1.341501   -0.109484    1.670014
      9          6           0        2.510320    0.077883   -1.735499
     10          6           0       -2.289005   -0.913194    0.889287
     11          6           0       -3.779618   -0.956536    1.298071
     12          6           0       -0.287808    1.063545   -0.937336
     13          6           0       -1.862668   -1.556572   -0.219584
     14          6           0       -4.073264   -0.207385    2.596499
     15          6           0       -4.227215   -2.437474    1.492990
     16          6           0       -1.759028    0.589717    2.748600
     17          6           0        2.077397   -0.856846   -2.880043
     18          6           0       -4.596577   -0.282623    0.160147
     19          6           0       -5.465199   -0.352346    3.162046
     20          6           0       -3.130431    0.518331    3.220754
     21          6           0       -5.654651   -2.589520    2.033626
     22          6           0        4.009870    0.016615   -1.577513
     23          6           0       -5.832622   -1.825912    3.344621
     24          6           0        4.852279    1.033503   -1.748907
     25          6           0        6.347888    0.982266   -1.563126
     26          6           0        7.093190    1.377140   -2.868073
     27          6           0        6.708463    0.449888   -4.030158
     28          6           0        8.619111    1.383274   -2.691821
     29          6           0        6.735260    1.877349   -0.368973
     30          1           0       -7.429371   -2.791010    3.967477
     31          1           0        0.434920   -1.205266    1.577462
     32          1           0        2.132208   -1.282090   -0.125203
     33          1           0        1.424694    0.599716    2.790947
     34          1           0        0.697268    1.814930    1.751857
     35          1           0        2.554643    1.673589    0.347070
     36          1           0        3.207378    0.313502    1.229206
     37          1           0        0.098454   -2.359009   -0.582459
     38          1           0       -0.571254   -1.432674   -1.903893
     39          1           0        2.243226    1.105636   -2.007649
     40          1           0       -0.154854    1.039644   -2.021578
     41          1           0       -1.356210    1.162718   -0.735527
     42          1           0        0.208855    1.961608   -0.563249
     43          1           0       -2.563810   -2.165091   -0.782638
     44          1           0       -3.525863   -2.910892    2.188586
     45          1           0       -4.135250   -2.971377    0.543902
     46          1           0       -1.051109    1.175798    3.324262
     47          1           0        2.648394   -0.638433   -3.786512
     48          1           0        2.253313   -1.904556   -2.614774
     49          1           0        1.018696   -0.743599   -3.117761
     50          1           0       -4.259974    0.747480    0.019808
     51          1           0       -4.443281   -0.820972   -0.778240
     52          1           0       -5.666895   -0.263927    0.370096
     53          1           0       -6.212360    0.092200    2.493211
     54          1           0       -5.539824    0.167948    4.119940
     55          1           0       -3.380844    1.045069    4.137459
     56          1           0       -5.875752   -3.650812    2.191352
     57          1           0       -6.387904   -2.215205    1.311802
     58          1           0        4.410754   -0.960158   -1.299921
     59          1           0       -5.171228   -2.261591    4.107174
     60          1           0        4.450011    2.010543   -2.023738
     61          1           0        6.630449   -0.051999   -1.322943
     62          1           0        6.776627    2.397995   -3.125438
     63          1           0        6.999291   -0.583238   -3.807138
     64          1           0        5.632605    0.457878   -4.216462
     65          1           0        7.217478    0.749327   -4.950987
     66          1           0        8.971230    0.403714   -2.348643
     67          1           0        9.113134    1.599039   -3.643751
     68          1           0        8.952712    2.132610   -1.971329
     69          1           0        6.151378    1.606982    0.514639
     70          1           0        7.792450    1.781910   -0.112891
     71          1           0        6.534735    2.930494   -0.594803
 ---------------------------------------------------------------------

 SCF Done:  E(RCAM-B3LYP) =  -1166.24691175     A.U. after   24 cycles

 Excitation energies and oscillator strengths:

 Excited state symmetry could not be determined.
 Excited State   1:      Singlet-?Sym    3.9948 eV  310.36 nm  f=0.3969  <S**2>=0.000
     109 ->110         0.67948
     109 ->114         0.11585
 This state for optimization and/or second-order correction.
 Total Energy, E(TD-HF/TD-KS) =  -1166.10010546
 Copying the excited state density for this state as the 1-particle RhoCI density.

 Excited state symmetry could not be determined.
 Excited State   2:      Singlet-?Sym    5.3751 eV  230.66 nm  f=0.0031  <S**2>=0.000
     109 ->111         0.48077
     109 ->112         0.21468
     109 ->113         0.17885
     109 ->115         0.14915
     109 ->116         0.12173
     109 ->118        -0.20611
     109 ->149        -0.12702

 Excited state symmetry could not be determined.
 Excited State   3:      Singlet-?Sym    5.8011 eV  213.72 nm  f=0.0100  <S**2>=0.000
     109 ->113         0.36214
     109 ->114         0.29052
     109 ->116         0.17222
     109 ->117         0.29754
     109 ->120         0.10790
     109 ->127        -0.12778

 Excited state symmetry could not be determined.
 Excited State   4:      Singlet-?Sym    5.9115 eV  209.73 nm  f=0.0373  <S**2>=0.000
     109 ->111        -0.16381
     109 ->112        -0.12515
     109 ->113         0.36465
     109 ->114        -0.24110
     109 ->116         0.21815
     109 ->117        -0.18682
     109 ->122        -0.13320
     109 ->126         0.11638
     109 ->135        -0.10003
     109 ->141         0.15541
     109 ->142        -0.14827

 Excited state symmetry could not be determined.
 Excited State   5:      Singlet-?Sym    6.0239 eV  205.82 nm  f=0.2046  <S**2>=0.000
     107 ->110         0.25584
     109 ->114         0.22956
     109 ->115         0.16906
     109 ->117         0.14573
     109 ->120        -0.13235
     109 ->123         0.12223
     109 ->125        -0.13848
     109 ->127        -0.12676
     109 ->133        -0.14566
     109 ->135        -0.10697
     109 ->139         0.14653
     109 ->141         0.24270
     109 ->142        -0.15417
     109 ->150         0.10049

 Excited state symmetry could not be determined.
 Excited State   6:      Singlet-?Sym    6.1611 eV  201.24 nm  f=0.0351  <S**2>=0.000
     107 ->110         0.60857
     107 ->114         0.11370
     109 ->141        -0.11174

 Excited state symmetry could not be determined.
 Excited State   7:      Singlet-?Sym    6.2896 eV  197.12 nm  f=0.0298  <S**2>=0.000
     109 ->112        -0.30403
     109 ->113         0.12226
     109 ->115         0.32364
     109 ->119        -0.24766
     109 ->121         0.13584
     109 ->122         0.11280
     109 ->123         0.17066
     109 ->124        -0.11887
     109 ->125         0.17537
     109 ->141        -0.15038

 Excited state symmetry could not be determined.
 Excited State   8:      Singlet-?Sym    6.3903 eV  194.02 nm  f=0.0031  <S**2>=0.000
     109 ->111         0.13212
     109 ->112        -0.11389
     109 ->115         0.19366
     109 ->119         0.20706
     109 ->120         0.43707
     109 ->123         0.13751
     109 ->124         0.25564
     109 ->165         0.10816

 Excited state symmetry could not be determined.
 Excited State   9:      Singlet-?Sym    6.4349 eV  192.68 nm  f=0.0060  <S**2>=0.000
     101 ->110        -0.29616
     103 ->110        -0.15407
     104 ->110         0.25374
     105 ->110        -0.17955
     106 ->110        -0.42008
     108 ->110        -0.15179

 Excited state symmetry could not be determined.
 Excited State  10:      Singlet-?Sym    6.5485 eV  189.33 nm  f=0.0040  <S**2>=0.000
     109 ->114         0.19635
     109 ->117        -0.35856
     109 ->119         0.17551
     109 ->121         0.41122
     109 ->125        -0.11416
     109 ->133         0.11041

 Alpha  occ. eigenvalues --  -19.25950 -10.35498 -10.32556 -10.31091 -10.30921
 Alpha  occ. eigenvalues --  -10.30770 -10.30749 -10.30229 -10.30186 -10.30063
 Alpha  occ. eigenvalues --  -10.30009 -10.29954 -10.29899 -10.29889 -10.29782
 Alpha  occ. eigenvalues --  -10.29715 -10.29685 -10.29632 -10.29617 -10.29294
 Alpha  occ. eigenvalues --  -10.29203 -10.28918 -10.28907 -10.28730 -10.28435
 Alpha  occ. eigenvalues --  -10.28412 -10.28210 -10.28088 -10.27997  -1.17439
 Alpha  occ. eigenvalues --   -1.03206  -1.00941  -0.98026  -0.96522  -0.94676
 Alpha  occ. eigenvalues --   -0.94105  -0.91476  -0.90573  -0.89505  -0.87490
 Alpha  occ. eigenvalues --   -0.85776  -0.85424  -0.83215  -0.82163  -0.82098
 Alpha  occ. eigenvalues --   -0.81095  -0.77627  -0.77363  -0.75301  -0.74321
 Alpha  occ. eigenvalues --   -0.73577  -0.70738  -0.68882  -0.68774  -0.68545
 Alpha  occ. eigenvalues --   -0.66942  -0.65711  -0.63997  -0.62674  -0.61377
 Alpha  occ. eigenvalues --   -0.60172  -0.59713  -0.58581  -0.58436  -0.57382
 Alpha  occ. eigenvalues --   -0.57246  -0.56802  -0.55687  -0.55504  -0.55100
 Alpha  occ. eigenvalues --   -0.54406  -0.53954  -0.53543  -0.52964  -0.52531
 Alpha  occ. eigenvalues --   -0.51997  -0.51731  -0.51419  -0.50967  -0.50483
 Alpha  occ. eigenvalues --   -0.50097  -0.49936  -0.49274  -0.49096  -0.48989
 Alpha  occ. eigenvalues --   -0.48520  -0.48321  -0.47629  -0.47190  -0.46391
 Alpha  occ. eigenvalues --   -0.45881  -0.45569  -0.45249  -0.44732  -0.43969
 Alpha  occ. eigenvalues --   -0.43791  -0.43382  -0.42876  -0.42678  -0.42214
 Alpha  occ. eigenvalues --   -0.41736  -0.41583  -0.41304  -0.40465  -0.39602
 Alpha  occ. eigenvalues --   -0.39245  -0.37049  -0.34790  -0.28777
 Alpha virt. eigenvalues --    0.02661   0.02885   0.03384   0.03630   0.03766
 Alpha virt. eigenvalues --    0.03962   0.04337   0.04504   0.04975   0.05401
 Alpha virt. eigenvalues --    0.05505   0.05557   0.05900   0.06299   0.06494

 Mulliken charges:
               1
     1  O   -0.290396
     2  C    0.447713
     3  C   -0.358891
     4  C    0.019175
     5  C   -0.551982
     6  C   -0.696632
     7  C   -0.533499
     8  C    0.430912
     9  C   -0.096002
    10  C    0.611567
    11  C    0.241474
    12  C   -0.768905
    13  C   -0.421929
    14  C   -0.048071
    15  C   -0.379148
    16  C   -0.232855
    17  C   -0.574079
    18  C   -0.718150
    19  C   -0.193961
    20  C   -0.587919
    21  C   -0.394469
    22  C   -0.173159
    23  C   -0.659669
    24  C   -0.136335
    25  C    0.116345
    26  C    0.058769
    27  C   -0.599820
    28  C   -0.630126
    29  C   -0.664577
    30  H    0.287517
    31  H    0.265458
    32  H    0.226156
    33  H    0.185126
    34  H    0.188499
    35  H    0.174249
    36  H    0.176183
    37  H    0.208143
    38  H    0.146197
    39  H    0.185543
    40  H    0.179294
    41  H    0.140334
    42  H    0.205587
    43  H    0.238563
    44  H    0.227292
    45  H    0.143814
    46  H    0.185428
    47  H    0.183291
    48  H    0.185402
    49  H    0.137952
    50  H    0.187467
    51  H    0.177807
    52  H    0.145036
    53  H    0.222281
    54  H    0.206540
    55  H    0.218355
    56  H    0.210233
    57  H    0.202865
    58  H    0.203942
    59  H    0.207184
    60  H    0.202641
    61  H    0.187777
    62  H    0.165318
    63  H    0.156556
    64  H    0.140068
    65  H    0.152584
    66  H    0.160738
    67  H    0.152801
    68  H    0.148299
    69  H    0.147466
    70  H    0.140951
    71  H    0.177683
 Sum of Mulliken charges =   0.00000

 Dipole moment (field-independent basis, Debye):
    X=              1.5923    Y=             -2.5292    Z=             -1.5077  Tot=              3.3474
 Quadrupole moment (field-independent basis, Debye-Ang):
   XX=           -194.2051   YY=           -173.4594   ZZ=           -189.3871
   XY=             14.8221   XZ=              8.6770   YZ=             -6.1952

 Normal termination of Gaussian 09 at Mon Feb 17 12:12:36 2020.
