 Gaussian 09, Revision D.01,
 Gaussian 09:  ES64L-G09RevD.01 24-Apr-2013

 ----------------------------------------------------------------------
 #p CAM-B3LYP/6-311++G** nosym density=current geom=allcheck EmpiricalD
 ispersion=GD3 SCRF=(CPCM, solvent=ethanol) IOP(10/74=10) TD=(NSTATES=1
 0,ROOT=1,NONEQ) iop(3/119=0810000000) iop(3/120=0810000000)
 ----------------------------------------------------------------------

 Structure from the checkpoint file:  "checkpointCPCM_ethanolES.chk"
 ---
 DHE
 ---
 Charge =  0 Multiplicity = 1

                          Input orientation:
 ---------------------------------------------------------------------
 Center     Atomic      Atomic             Coordinates (Angstroms)
 Number     Number       Type             X           Y           Z
 ---------------------------------------------------------------------
      1          8           0       -7.190365   -1.869446    3.814628
      2          6           0        0.279183   -0.216445   -0.293897
      3          6           0        0.096731   -0.209845    1.247466
      4          6           0        1.832974   -0.257712   -0.387195
      5          6           0        1.121402    0.806915    1.762357
      6          6           0        2.299069    0.693012    0.757849
      7          6           0       -0.477110   -1.451107   -0.814436
      8          6           0       -1.341476   -0.109549    1.669983
      9          6           0        2.510302    0.077902   -1.735585
     10          6           0       -2.289006   -0.913173    0.889223
     11          6           0       -3.779591   -0.956513    1.298072
     12          6           0       -0.287809    1.063588   -0.937296
     13          6           0       -1.862727   -1.556494   -0.219697
     14          6           0       -4.073211   -0.207406    2.596530
     15          6           0       -4.227138   -2.437463    1.492988
     16          6           0       -1.758970    0.589600    2.748592
     17          6           0        2.077392   -0.856753   -2.880188
     18          6           0       -4.596603   -0.282560    0.160216
     19          6           0       -5.465134   -0.352354    3.162074
     20          6           0       -3.130346    0.518256    3.220766
     21          6           0       -5.654550   -2.589538    2.033678
     22          6           0        4.009845    0.016661   -1.577596
     23          6           0       -5.832594   -1.825908    3.344673
     24          6           0        4.852221    1.033589   -1.748828
     25          6           0        6.347819    0.982388   -1.563027
     26          6           0        7.093122    1.377023   -2.868047
     27          6           0        6.708494    0.449468   -4.029919
     28          6           0        8.619034    1.383364   -2.691753
     29          6           0        6.735180    1.877644   -0.369006
     30          1           0       -7.429494   -2.790834    3.967335
     31          1           0        0.434892   -1.205399    1.577356
     32          1           0        2.132176   -1.282161   -0.125376
     33          1           0        1.424756    0.599505    2.790906
     34          1           0        0.697332    1.814774    1.751892
     35          1           0        2.554749    1.673464    0.347090
     36          1           0        3.207434    0.313333    1.229102
     37          1           0        0.098376   -2.358994   -0.582628
     38          1           0       -0.571284   -1.432552   -1.904021
     39          1           0        2.243194    1.105668   -2.007677
     40          1           0       -0.154912    1.039755   -2.021550
     41          1           0       -1.356184    1.162806   -0.735409
     42          1           0        0.208892    1.961616   -0.563180
     43          1           0       -2.563910   -2.164945   -0.782773
     44          1           0       -3.525712   -2.910843    2.188534
     45          1           0       -4.135166   -2.971371    0.543894
     46          1           0       -1.051018    1.175643    3.324250
     47          1           0        2.648416   -0.638312   -3.786627
     48          1           0        2.253292   -1.904485   -2.614992
     49          1           0        1.018692   -0.743491   -3.117912
     50          1           0       -4.260066    0.747573    0.019995
     51          1           0       -4.443280   -0.820780   -0.778245
     52          1           0       -5.666918   -0.263940    0.370192
     53          1           0       -6.212347    0.092177    2.493300
     54          1           0       -5.539816    0.167905    4.119973
     55          1           0       -3.380741    1.044999    4.137467
     56          1           0       -5.875618   -3.650858    2.191396
     57          1           0       -6.387871   -2.215273    1.311901
     58          1           0        4.410766   -0.960128   -1.300118
     59          1           0       -5.171161   -2.261542    4.107247
     60          1           0        4.449922    2.010642   -2.023568
     61          1           0        6.630367   -0.051844   -1.322678
     62          1           0        6.776468    2.397792   -3.125657
     63          1           0        6.999491   -0.583566   -3.806706
     64          1           0        5.632630    0.457229   -4.216170
     65          1           0        7.217418    0.748779   -4.950838
     66          1           0        8.971263    0.403932   -2.348323
     67          1           0        9.113078    1.598929   -3.643715
     68          1           0        8.952545    2.132918   -1.971446
     69          1           0        6.151173    1.607520    0.514591
     70          1           0        7.792336    1.782138   -0.112803
     71          1           0        6.534799    2.930774   -0.595031
 ---------------------------------------------------------------------

 SCF Done:  E(RCAM-B3LYP) =  -1166.24678512     A.U. after   34 cycles

 Excitation energies and oscillator strengths:

 Excited state symmetry could not be determined.
 Excited State   1:      Singlet-?Sym    3.9925 eV  310.54 nm  f=0.3991  <S**2>=0.000
     109 ->110         0.67887
     109 ->114         0.11627
 This state for optimization and/or second-order correction.
 Total Energy, E(TD-HF/TD-KS) =  -1166.10006446
 Copying the excited state density for this state as the 1-particle RhoCI density.

 Excited state symmetry could not be determined.
 Excited State   2:      Singlet-?Sym    5.3744 eV  230.69 nm  f=0.0031  <S**2>=0.000
     109 ->111         0.47948
     109 ->112         0.21394
     109 ->113         0.18127
     109 ->115         0.14970
     109 ->116         0.12175
     109 ->118        -0.20631
     109 ->149        -0.12709

 Excited state symmetry could not be determined.
 Excited State   3:      Singlet-?Sym    5.7994 eV  213.79 nm  f=0.0100  <S**2>=0.000
     109 ->113         0.36641
     109 ->114         0.28645
     109 ->116         0.17446
     109 ->117         0.29674
     109 ->120         0.10843
     109 ->127        -0.12688

 Excited state symmetry could not be determined.
 Excited State   4:      Singlet-?Sym    5.9094 eV  209.81 nm  f=0.0388  <S**2>=0.000
     109 ->111        -0.16428
     109 ->112        -0.12830
     109 ->113         0.35953
     109 ->114        -0.24343
     109 ->116         0.21631
     109 ->117        -0.18913
     109 ->122        -0.13397
     109 ->126         0.11584
     109 ->135        -0.10078
     109 ->141         0.15315
     109 ->142        -0.15387

 Excited state symmetry could not be determined.
 Excited State   5:      Singlet-?Sym    6.0213 eV  205.91 nm  f=0.2070  <S**2>=0.000
     107 ->110         0.25634
     109 ->114         0.23076
     109 ->115         0.16892
     109 ->117         0.14713
     109 ->120        -0.13093
     109 ->123         0.12187
     109 ->125        -0.13796
     109 ->127        -0.12724
     109 ->133        -0.14536
     109 ->135        -0.10595
     109 ->139         0.14485
     109 ->141         0.23817
     109 ->142        -0.16009
     109 ->150         0.10067

 Excited state symmetry could not be determined.
 Excited State   6:      Singlet-?Sym    6.1610 eV  201.24 nm  f=0.0354  <S**2>=0.000
     107 ->110         0.60769
     107 ->114         0.11404
     109 ->141        -0.11024

 Excited state symmetry could not be determined.
 Excited State   7:      Singlet-?Sym    6.2879 eV  197.18 nm  f=0.0300  <S**2>=0.000
     109 ->112        -0.30493
     109 ->113         0.11909
     109 ->115         0.32335
     109 ->119        -0.24799
     109 ->121         0.13562
     109 ->122         0.11248
     109 ->123         0.17137
     109 ->124        -0.11874
     109 ->125         0.17581
     109 ->141        -0.14893

 Excited state symmetry could not be determined.
 Excited State   8:      Singlet-?Sym    6.3882 eV  194.08 nm  f=0.0032  <S**2>=0.000
     109 ->111         0.13142
     109 ->112        -0.11399
     109 ->115         0.19380
     109 ->119         0.20731
     109 ->120         0.43715
     109 ->123         0.13684
     109 ->124         0.25601
     109 ->165         0.10820

 Excited state symmetry could not be determined.
 Excited State   9:      Singlet-?Sym    6.4357 eV  192.65 nm  f=0.0061  <S**2>=0.000
     101 ->110        -0.29598
     103 ->110        -0.15321
     104 ->110         0.25394
     105 ->110        -0.18026
     106 ->110        -0.41947
     108 ->110        -0.15172

 Excited state symmetry could not be determined.
 Excited State  10:      Singlet-?Sym    6.5467 eV  189.38 nm  f=0.0041  <S**2>=0.000
     109 ->114         0.19716
     109 ->117        -0.35757
     109 ->119         0.17408
     109 ->121         0.41257
     109 ->125        -0.11378
     109 ->133         0.10978

 Alpha  occ. eigenvalues --  -19.25940 -10.35495 -10.32554 -10.31084 -10.30915
 Alpha  occ. eigenvalues --  -10.30769 -10.30750 -10.30233 -10.30189 -10.30066
 Alpha  occ. eigenvalues --  -10.30001 -10.29957 -10.29898 -10.29888 -10.29777
 Alpha  occ. eigenvalues --  -10.29719 -10.29679 -10.29636 -10.29621 -10.29296
 Alpha  occ. eigenvalues --  -10.29205 -10.28918 -10.28906 -10.28732 -10.28440
 Alpha  occ. eigenvalues --  -10.28415 -10.28213 -10.28088 -10.27998  -1.17433
 Alpha  occ. eigenvalues --   -1.03204  -1.00940  -0.98028  -0.96522  -0.94674
 Alpha  occ. eigenvalues --   -0.94105  -0.91475  -0.90573  -0.89507  -0.87489
 Alpha  occ. eigenvalues --   -0.85777  -0.85425  -0.83216  -0.82163  -0.82099
 Alpha  occ. eigenvalues --   -0.81095  -0.77625  -0.77365  -0.75300  -0.74320
 Alpha  occ. eigenvalues --   -0.73579  -0.70738  -0.68883  -0.68777  -0.68545
 Alpha  occ. eigenvalues --   -0.66943  -0.65710  -0.63995  -0.62673  -0.61375
 Alpha  occ. eigenvalues --   -0.60173  -0.59713  -0.58581  -0.58436  -0.57383
 Alpha  occ. eigenvalues --   -0.57246  -0.56803  -0.55688  -0.55499  -0.55101
 Alpha  occ. eigenvalues --   -0.54408  -0.53953  -0.53542  -0.52966  -0.52533
 Alpha  occ. eigenvalues --   -0.51996  -0.51731  -0.51420  -0.50966  -0.50483
 Alpha  occ. eigenvalues --   -0.50099  -0.49938  -0.49276  -0.49097  -0.48990
 Alpha  occ. eigenvalues --   -0.48517  -0.48321  -0.47626  -0.47190  -0.46392
 Alpha  occ. eigenvalues --   -0.45883  -0.45568  -0.45245  -0.44735  -0.43970
 Alpha  occ. eigenvalues --   -0.43792  -0.43384  -0.42877  -0.42677  -0.42217
 Alpha  occ. eigenvalues --   -0.41736  -0.41585  -0.41301  -0.40462  -0.39597
 Alpha  occ. eigenvalues --   -0.39246  -0.37046  -0.34792  -0.28772
 Alpha virt. eigenvalues --    0.02666   0.02883   0.03381   0.03627   0.03762
 Alpha virt. eigenvalues --    0.03958   0.04334   0.04501   0.04972   0.05398
 Alpha virt. eigenvalues --    0.05502   0.05555   0.05897   0.06295   0.06492

 Mulliken charges:
               1
     1  O   -0.289260
     2  C    0.447138
     3  C   -0.359202
     4  C    0.018846
     5  C   -0.551682
     6  C   -0.696645
     7  C   -0.533202
     8  C    0.432295
     9  C   -0.096438
    10  C    0.612419
    11  C    0.241285
    12  C   -0.768845
    13  C   -0.422278
    14  C   -0.048359
    15  C   -0.379275
    16  C   -0.232586
    17  C   -0.573702
    18  C   -0.717965
    19  C   -0.193007
    20  C   -0.587421
    21  C   -0.395004
    22  C   -0.172549
    23  C   -0.659569
    24  C   -0.135736
    25  C    0.116068
    26  C    0.058849
    27  C   -0.599558
    28  C   -0.629733
    29  C   -0.664382
    30  H    0.287005
    31  H    0.265360
    32  H    0.226004
    33  H    0.185069
    34  H    0.188497
    35  H    0.174181
    36  H    0.176133
    37  H    0.207899
    38  H    0.145985
    39  H    0.185501
    40  H    0.179118
    41  H    0.140414
    42  H    0.205513
    43  H    0.238120
    44  H    0.227299
    45  H    0.143544
    46  H    0.185182
    47  H    0.183344
    48  H    0.185262
    49  H    0.137834
    50  H    0.187467
    51  H    0.177654
    52  H    0.144880
    53  H    0.222319
    54  H    0.206494
    55  H    0.218098
    56  H    0.209887
    57  H    0.202949
    58  H    0.203663
    59  H    0.206916
    60  H    0.202390
    61  H    0.187677
    62  H    0.165241
    63  H    0.156482
    64  H    0.140038
    65  H    0.152494
    66  H    0.160677
    67  H    0.152730
    68  H    0.148230
    69  H    0.147471
    70  H    0.140886
    71  H    0.177593
 Sum of Mulliken charges =   0.00000

 Dipole moment (field-independent basis, Debye):
    X=              1.5843    Y=             -2.5108    Z=             -1.4924  Tot=              3.3229
 Quadrupole moment (field-independent basis, Debye-Ang):
   XX=           -194.1659   YY=           -173.5083   ZZ=           -189.3531
   XY=             14.7575   XZ=              8.6227   YZ=             -6.1715

 Normal termination of Gaussian 09 at Mon Feb 17 12:15:28 2020.
