 Gaussian 09, Revision D.01,
 Gaussian 09:  ES64L-G09RevD.01 24-Apr-2013

 ----------------------------------------------------------------------
 #p CAM-B3LYP/6-311++G** geom=allcheck nosym TD=(NSTATES=10,ROOT=1) den
 sity=current iop(3/119=0810000000) iop(3/120=0810000000)
 ----------------------------------------------------------------------

 Structure from the checkpoint file:  "checkpoint_es.chk"
 ---
 DHE
 ---
 Charge =  0 Multiplicity = 1

                          Input orientation:
 ---------------------------------------------------------------------
 Center     Atomic      Atomic             Coordinates (Angstroms)
 Number     Number       Type             X           Y           Z
 ---------------------------------------------------------------------
      1          8           0       -7.187915   -1.916974    3.832894
      2          6           0        0.260487   -0.175882   -0.301694
      3          6           0        0.067532   -0.186039    1.240379
      4          6           0        1.819749   -0.232347   -0.383611
      5          6           0        1.099853    0.813400    1.775831
      6          6           0        2.284083    0.700662    0.778125
      7          6           0       -0.506635   -1.398408   -0.839614
      8          6           0       -1.373029   -0.088156    1.662333
      9          6           0        2.522948    0.101941   -1.723644
     10          6           0       -2.319908   -0.886438    0.874294
     11          6           0       -3.807340   -0.957214    1.296719
     12          6           0       -0.290268    1.116957   -0.934824
     13          6           0       -1.892710   -1.510830   -0.244872
     14          6           0       -4.101751   -0.216708    2.600581
     15          6           0       -4.223599   -2.448053    1.499090
     16          6           0       -1.792994    0.596420    2.748688
     17          6           0        2.105993   -0.826756   -2.881457
     18          6           0       -4.653100   -0.302027    0.168282
     19          6           0       -5.486729   -0.381947    3.177672
     20          6           0       -3.161601    0.513003    3.223271
     21          6           0       -5.641620   -2.629696    2.058509
     22          6           0        4.023641    0.037258   -1.553231
     23          6           0       -5.834852   -1.860539    3.366373
     24          6           0        4.878002    1.037670   -1.764767
     25          6           0        6.375050    0.979675   -1.576709
     26          6           0        7.132072    1.339803   -2.887445
     27          6           0        6.752207    0.394443   -4.036497
     28          6           0        8.657780    1.348269   -2.704655
     29          6           0        6.770805    1.892650   -0.397853
     30          1           0       -7.420571   -2.837254    3.993934
     31          1           0        0.400089   -1.188088    1.557141
     32          1           0        2.102968   -1.262791   -0.125115
     33          1           0        1.398209    0.586180    2.802036
     34          1           0        0.690284    1.827355    1.781271
     35          1           0        2.555660    1.684127    0.385184
     36          1           0        3.184267    0.307611    1.254586
     37          1           0        0.063816   -2.314422   -0.625317
     38          1           0       -0.602479   -1.361755   -1.929519
     39          1           0        2.265238    1.131279   -1.999748
     40          1           0       -0.141581    1.112383   -2.017873
     41          1           0       -1.360872    1.220577   -0.749308
     42          1           0        0.201345    2.008891   -0.539247
     43          1           0       -2.591236   -2.118283   -0.813261
     44          1           0       -3.502176   -2.907437    2.183509
     45          1           0       -4.131215   -2.982474    0.549359
     46          1           0       -1.087202    1.179815    3.329735
     47          1           0        2.682618   -0.594445   -3.780405
     48          1           0        2.290833   -1.876538   -2.630303
     49          1           0        1.048165   -0.723044   -3.129090
     50          1           0       -4.355170    0.740343    0.033475
     51          1           0       -4.488613   -0.824305   -0.777540
     52          1           0       -5.722377   -0.320369    0.385270
     53          1           0       -6.250683    0.052963    2.521745
     54          1           0       -5.559768    0.136102    4.136625
     55          1           0       -3.413623    1.031907    4.143912
     56          1           0       -5.831646   -3.697405    2.224015
     57          1           0       -6.394151   -2.285502    1.341407
     58          1           0        4.418593   -0.932864   -1.244579
     59          1           0       -5.166460   -2.280836    4.132648
     60          1           0        4.482871    2.007838   -2.073454
     61          1           0        6.644397   -0.052504   -1.313134
     62          1           0        6.822188    2.356548   -3.169313
     63          1           0        7.044301   -0.635918   -3.803499
     64          1           0        5.677576    0.397092   -4.228007
     65          1           0        7.262832    0.682336   -4.960113
     66          1           0        9.013755    0.375684   -2.345975
     67          1           0        9.155133    1.548189   -3.658207
     68          1           0        8.991064    2.109697   -1.996891
     69          1           0        6.185399    1.643175    0.490285
     70          1           0        7.827183    1.792929   -0.139941
     71          1           0        6.579991    2.944772   -0.636868
 ---------------------------------------------------------------------

 SCF Done:  E(RCAM-B3LYP) =  -1166.17506155     A.U. after   32 cycles

 Excitation energies and oscillator strengths:

 Excited state symmetry could not be determined.
 Excited State   1:      Singlet-?Sym    4.0662 eV  304.91 nm  f=0.3416  <S**2>=0.000
     109 ->110        -0.10637
     109 ->111         0.56133
     109 ->112        -0.32689
     109 ->114        -0.18469
 This state for optimization and/or second-order correction.
 Total Energy, E(TD-HF/TD-KS) =  -1166.02563120
 Copying the excited state density for this state as the 1-particle RhoCI density.

 Excited state symmetry could not be determined.
 Excited State   2:      Singlet-?Sym    5.3437 eV  232.02 nm  f=0.0025  <S**2>=0.000
     109 ->110         0.46999
     109 ->113        -0.17477
     109 ->114        -0.10210
     109 ->115         0.26798
     109 ->116         0.10749
     109 ->118        -0.21651
     109 ->120         0.10578

 Excited state symmetry could not be determined.
 Excited State   3:      Singlet-?Sym    5.6747 eV  218.49 nm  f=0.0026  <S**2>=0.000
     109 ->110         0.22173
     109 ->112        -0.11096
     109 ->113         0.47040
     109 ->116        -0.21928
     109 ->117        -0.24457

 Excited state symmetry could not be determined.
 Excited State   4:      Singlet-?Sym    5.8213 eV  212.98 nm  f=0.0099  <S**2>=0.000
     109 ->111         0.11701
     109 ->112        -0.18383
     109 ->113         0.12125
     109 ->114         0.34558
     109 ->116        -0.16484
     109 ->117         0.33949
     109 ->122         0.13563
     109 ->127        -0.14003
     109 ->142        -0.15740

 Excited state symmetry could not be determined.
 Excited State   5:      Singlet-?Sym    5.9992 eV  206.67 nm  f=0.0721  <S**2>=0.000
     109 ->111         0.20312
     109 ->112         0.16693
     109 ->114         0.11949
     109 ->115         0.23725
     109 ->118         0.15273
     109 ->120         0.13099
     109 ->123        -0.18943
     109 ->127        -0.10739
     109 ->128        -0.10109
     109 ->129         0.10556
     109 ->133        -0.15091
     109 ->142         0.29675

 Excited state symmetry could not be determined.
 Excited State   6:      Singlet-?Sym    6.1827 eV  200.53 nm  f=0.0136  <S**2>=0.000
     107 ->111        -0.15173
     107 ->112         0.10758
     109 ->111         0.13522
     109 ->112         0.28461
     109 ->114        -0.11089
     109 ->115         0.21074
     109 ->117        -0.10134
     109 ->119        -0.20406
     109 ->122         0.10719
     109 ->123        -0.14906
     109 ->125         0.21149
     109 ->142        -0.22081

 Excited state symmetry could not be determined.
 Excited State   7:      Singlet-?Sym    6.2130 eV  199.56 nm  f=0.1038  <S**2>=0.000
     107 ->110         0.11985
     107 ->111        -0.51906
     107 ->112         0.28410
     107 ->114         0.16759
     109 ->112        -0.12861
     109 ->115        -0.11067

 Excited state symmetry could not be determined.
 Excited State   8:      Singlet-?Sym    6.2557 eV  198.20 nm  f=0.0042  <S**2>=0.000
     109 ->114         0.10869
     109 ->115        -0.10422
     109 ->118         0.14845
     109 ->119        -0.20144
     109 ->120         0.43185
     109 ->121         0.13183
     109 ->124        -0.28076

 Excited state symmetry could not be determined.
 Excited State   9:      Singlet-?Sym    6.4292 eV  192.84 nm  f=0.0056  <S**2>=0.000
     109 ->110         0.11683
     109 ->113        -0.18049
     109 ->114         0.21463
     109 ->117        -0.27208
     109 ->120        -0.18809
     109 ->121         0.38699
     109 ->122        -0.10492
     109 ->123        -0.12989
     109 ->126         0.11331

 Excited state symmetry could not be determined.
 Excited State  10:      Singlet-?Sym    6.5007 eV  190.72 nm  f=0.0043  <S**2>=0.000
     101 ->111         0.19829
     101 ->112        -0.11420
     102 ->111        -0.15126
     104 ->111         0.22140
     104 ->112        -0.12524
     105 ->111        -0.36136
     105 ->112         0.20594
     105 ->114         0.12425
     106 ->111         0.13191
     108 ->111        -0.11678

 Alpha  occ. eigenvalues --  -19.25306 -10.35341 -10.32519 -10.30951 -10.30712
 Alpha  occ. eigenvalues --  -10.30703 -10.30609 -10.30590 -10.30469 -10.30310
 Alpha  occ. eigenvalues --  -10.30143 -10.30057 -10.29963 -10.29900 -10.29890
 Alpha  occ. eigenvalues --  -10.29836 -10.29625 -10.29547 -10.29534 -10.29442
 Alpha  occ. eigenvalues --  -10.29351 -10.29042 -10.28908 -10.28899 -10.28739
 Alpha  occ. eigenvalues --  -10.28598 -10.28464 -10.28147 -10.28089  -1.17063
 Alpha  occ. eigenvalues --   -1.03034  -1.00818  -0.98097  -0.96463  -0.94533
 Alpha  occ. eigenvalues --   -0.94111  -0.91396  -0.90570  -0.89569  -0.87430
 Alpha  occ. eigenvalues --   -0.85864  -0.85431  -0.83236  -0.82270  -0.82127
 Alpha  occ. eigenvalues --   -0.81109  -0.77557  -0.77516  -0.75240  -0.74223
 Alpha  occ. eigenvalues --   -0.73706  -0.70728  -0.69008  -0.68901  -0.68527
 Alpha  occ. eigenvalues --   -0.66998  -0.65613  -0.63892  -0.62641  -0.61294
 Alpha  occ. eigenvalues --   -0.60210  -0.59709  -0.58668  -0.58476  -0.57393
 Alpha  occ. eigenvalues --   -0.57225  -0.56813  -0.55732  -0.55173  -0.55139
 Alpha  occ. eigenvalues --   -0.54466  -0.53923  -0.53486  -0.53109  -0.52651
 Alpha  occ. eigenvalues --   -0.51902  -0.51721  -0.51487  -0.50959  -0.50507
 Alpha  occ. eigenvalues --   -0.50256  -0.50046  -0.49443  -0.49161  -0.49031
 Alpha  occ. eigenvalues --   -0.48392  -0.48278  -0.47449  -0.47201  -0.46454
 Alpha  occ. eigenvalues --   -0.46006  -0.45591  -0.44970  -0.44804  -0.44071
 Alpha  occ. eigenvalues --   -0.43878  -0.43508  -0.43013  -0.42630  -0.42374
 Alpha  occ. eigenvalues --   -0.41828  -0.41700  -0.41136  -0.40352  -0.39361
 Alpha  occ. eigenvalues --   -0.39146  -0.36839  -0.34926  -0.28461
 Alpha virt. eigenvalues --    0.02564   0.02959   0.03030   0.03391   0.03476
 Alpha virt. eigenvalues --    0.03593   0.04132   0.04354   0.04692   0.05163
 Alpha virt. eigenvalues --    0.05288   0.05423   0.05656   0.06006   0.06310

 Mulliken charges:
               1
     1  O   -0.210801
     2  C    0.459120
     3  C   -0.380581
     4  C    0.035847
     5  C   -0.536652
     6  C   -0.708144
     7  C   -0.533650
     8  C    0.498714
     9  C   -0.104683
    10  C    0.685118
    11  C    0.214996
    12  C   -0.768983
    13  C   -0.417829
    14  C   -0.074486
    15  C   -0.393126
    16  C   -0.212437
    17  C   -0.549535
    18  C   -0.711864
    19  C   -0.119233
    20  C   -0.579617
    21  C   -0.425726
    22  C   -0.132162
    23  C   -0.659146
    24  C   -0.127051
    25  C    0.113700
    26  C    0.068232
    27  C   -0.586991
    28  C   -0.600731
    29  C   -0.651630
    30  H    0.250880
    31  H    0.259435
    32  H    0.216604
    33  H    0.178963
    34  H    0.184458
    35  H    0.173349
    36  H    0.171076
    37  H    0.193283
    38  H    0.135350
    39  H    0.179918
    40  H    0.169198
    41  H    0.147026
    42  H    0.197964
    43  H    0.212825
    44  H    0.227095
    45  H    0.127330
    46  H    0.164574
    47  H    0.186000
    48  H    0.177344
    49  H    0.128155
    50  H    0.187493
    51  H    0.166123
    52  H    0.131407
    53  H    0.221784
    54  H    0.198558
    55  H    0.196611
    56  H    0.189151
    57  H    0.207552
    58  H    0.182869
    59  H    0.190793
    60  H    0.182472
    61  H    0.180348
    62  H    0.160282
    63  H    0.151967
    64  H    0.136429
    65  H    0.144513
    66  H    0.156304
    67  H    0.147037
    68  H    0.142592
    69  H    0.147970
    70  H    0.134638
    71  H    0.171613
 Sum of Mulliken charges =   0.00000

 Dipole moment (field-independent basis, Debye):
    X=              1.2227    Y=             -1.7107    Z=             -0.8488  Tot=              2.2676
 Quadrupole moment (field-independent basis, Debye-Ang):
   XX=           -192.7146   YY=           -176.1993   ZZ=           -187.6565
   XY=             11.1954   XZ=              5.9305   YZ=             -5.0729

 Normal termination of Gaussian 09 at Mon Feb 17 12:16:15 2020.
