 Gaussian 09, Revision D.01,
 Gaussian 09:  ES64L-G09RevD.01 24-Apr-2013

 ----------------------------------------------------------------------
 #p CAM-B3LYP/6-311++G** nosym density=current geom=allcheck EmpiricalD
 ispersion=GD3 SCRF=(CPCM, solvent=water) IOP(10/74=10) TD=(NSTATES=10,
 ROOT=1,NONEQ) iop(3/119=0810000000) iop(3/120=0810000000)
 ----------------------------------------------------------------------

 Structure from the checkpoint file:  "checkpointCPCMES_wat.chk"
 -------
 dianion
 -------
 Charge = -2 Multiplicity = 1

                          Input orientation:
 ---------------------------------------------------------------------
 Center     Atomic      Atomic             Coordinates (Angstroms)
 Number     Number       Type             X           Y           Z
 ---------------------------------------------------------------------
      1          8           0        2.774315   -0.397713   -4.711183
      2          8           0        2.775024   -0.363123    4.705426
      3          6           0        2.712197   -0.372436   -2.340194
      4          6           0        2.712571   -0.354950    2.334337
      5          6           0        0.644552   -0.335638   -3.654556
      6          6           0        0.645086   -0.309455    3.648702
      7          6           0       -0.090632   -0.308357   -2.504882
      8          6           0       -0.090266   -0.290600    2.498975
      9          6           0        0.523927   -0.313403   -1.216745
     10          6           0        0.524153   -0.304029    1.210797
     11          6           0        1.950065   -0.343655   -1.197238
     12          6           0        1.950296   -0.334491    1.191308
     13          6           0        2.099569   -0.370385   -3.640716
     14          6           0        2.100115   -0.343598    3.634900
     15          8           0        2.622388   -0.344235   -0.003001
     16          6           0       -0.182218   -0.261955   -0.003113
     17          6           0       -1.674725   -0.329689   -0.002120
     18          6           0       -2.236820   -1.613830   -0.010061
     19          6           0       -3.616902   -1.794556   -0.007035
     20          6           0       -4.455430   -0.680239    0.004835
     21          6           0       -3.901340    0.596047    0.013456
     22          6           0       -2.514778    0.798344    0.009632
     23          1           0        3.793083   -0.396803   -2.266401
     24          1           0        3.793446   -0.379971    2.260596
     25          1           0        0.157869   -0.331610   -4.624082
     26          1           0        0.158516   -0.299226    4.618237
     27          1           0       -1.173162   -0.280169   -2.553209
     28          1           0       -1.172807   -0.263011    2.547282
     29          1           0       -1.578659   -2.475844   -0.018325
     30          1           0       -4.031074   -2.796509   -0.013612
     31          1           0       -5.532515   -0.806156    0.007400
     32          1           0       -4.537569    1.471996    0.023461
     33          6           0       -1.968340    2.235074    0.016446
     34          8           0       -2.818485    3.164309    0.046965
     35          8           0       -0.718258    2.364318   -0.009908
 ---------------------------------------------------------------------

 SCF Done:  E(RCAM-B3LYP) =  -1143.54965649     A.U. after   17 cycles

 Excitation energies and oscillator strengths:

 Excited state symmetry could not be determined.
 Excited State   1:      Singlet-?Sym    3.0286 eV  409.37 nm  f=1.0277  <S**2>=0.000
      86 -> 87         0.68866
 This state for optimization and/or second-order correction.
 Total Energy, E(TD-HF/TD-KS) =  -1143.43835610
 Copying the excited state density for this state as the 1-particle RhoCI density.

 Excited state symmetry could not be determined.
 Excited State   2:      Singlet-?Sym    4.2832 eV  289.46 nm  f=0.0237  <S**2>=0.000
      84 -> 87         0.29525
      85 -> 87         0.55050
      86 -> 97        -0.21938

 Excited state symmetry could not be determined.
 Excited State   3:      Singlet-?Sym    4.7071 eV  263.40 nm  f=0.0188  <S**2>=0.000
      84 -> 87        -0.29838
      85 -> 87         0.39169
      86 -> 89         0.18920
      86 -> 94         0.18244
      86 -> 97         0.32558
      86 ->103         0.16920

 Excited state symmetry could not be determined.
 Excited State   4:      Singlet-?Sym    4.7133 eV  263.05 nm  f=0.0002  <S**2>=0.000
      79 -> 87        -0.19274
      82 ->103         0.24805
      82 ->106         0.13407
      83 -> 87         0.55113

 Excited state symmetry could not be determined.
 Excited State   5:      Singlet-?Sym    4.7741 eV  259.70 nm  f=0.0001  <S**2>=0.000
      79 ->103        -0.12112
      81 -> 87         0.20730
      82 -> 87         0.53986
      83 ->103         0.24856
      83 ->106         0.13383

 Excited state symmetry could not be determined.
 Excited State   6:      Singlet-?Sym    4.8841 eV  253.85 nm  f=0.0001  <S**2>=0.000
      76 -> 87        -0.25398
      84 ->103         0.10586
      85 -> 97        -0.23186
      86 -> 98         0.23820
      86 -> 99         0.29869
      86 ->101         0.16830
      86 ->102         0.35077

 Excited state symmetry could not be determined.
 Excited State   7:      Singlet-?Sym    5.0185 eV  247.05 nm  f=0.6368  <S**2>=0.000
      84 -> 87         0.52140
      86 -> 89         0.20479
      86 -> 94         0.15273
      86 -> 97         0.32604

 Excited state symmetry could not be determined.
 Excited State   8:      Singlet-?Sym    5.0612 eV  244.97 nm  f=0.0003  <S**2>=0.000
      85 -> 91         0.10367
      86 -> 88         0.44954
      86 -> 90         0.40699
      86 -> 95        -0.11203
      86 ->101        -0.12982
      86 ->102         0.10339
      86 ->109        -0.15241

 Excited state symmetry could not be determined.
 Excited State   9:      Singlet-?Sym    5.1784 eV  239.42 nm  f=0.0003  <S**2>=0.000
      77 -> 89         0.22031
      80 -> 89         0.29957
      80 ->119        -0.10438
      84 -> 89         0.40859
      84 ->116         0.11214
      84 ->119        -0.11644
      85 -> 89        -0.17709

 Excited state symmetry could not be determined.
 Excited State  10:      Singlet-?Sym    5.2979 eV  234.02 nm  f=0.0019  <S**2>=0.000
      78 -> 89         0.17868
      79 -> 89         0.28022
      79 -> 94         0.14228
      80 -> 89         0.11150
      81 -> 89         0.19070
      81 -> 91         0.11157
      81 -> 94        -0.26198
      83 -> 89         0.19240
      86 -> 89         0.26484
      86 -> 91         0.10180
      86 -> 94        -0.18628

 Alpha  occ. eigenvalues --  -19.32384 -19.19676 -19.19675 -19.18883 -19.18817
 Alpha  occ. eigenvalues --  -10.39343 -10.38922 -10.38919 -10.36814 -10.36813
 Alpha  occ. eigenvalues --  -10.36290 -10.33009 -10.31799 -10.31798 -10.31695
 Alpha  occ. eigenvalues --  -10.31453 -10.31363 -10.31231 -10.31229 -10.31056
 Alpha  occ. eigenvalues --  -10.30777 -10.29341 -10.29341 -10.28564 -10.28563
 Alpha  occ. eigenvalues --   -1.26067  -1.17181  -1.13617  -1.13598  -1.07780
 Alpha  occ. eigenvalues --   -1.03540  -1.00897  -1.00529  -0.94679  -0.92240
 Alpha  occ. eigenvalues --   -0.90300  -0.89574  -0.87915  -0.86347  -0.79362
 Alpha  occ. eigenvalues --   -0.78266  -0.76797  -0.75648  -0.73125  -0.72383
 Alpha  occ. eigenvalues --   -0.67739  -0.66927  -0.66814  -0.64299  -0.61799
 Alpha  occ. eigenvalues --   -0.61111  -0.60433  -0.58936  -0.58756  -0.57953
 Alpha  occ. eigenvalues --   -0.57455  -0.56231  -0.56174  -0.55352  -0.54194
 Alpha  occ. eigenvalues --   -0.54158  -0.52908  -0.52669  -0.52237  -0.51914
 Alpha  occ. eigenvalues --   -0.50696  -0.50566  -0.49120  -0.48741  -0.48579
 Alpha  occ. eigenvalues --   -0.47247  -0.47158  -0.45926  -0.44164  -0.44014
 Alpha  occ. eigenvalues --   -0.37579  -0.36822  -0.36645  -0.35857  -0.35770
 Alpha  occ. eigenvalues --   -0.35593  -0.35570  -0.35074  -0.33771  -0.32093
 Alpha  occ. eigenvalues --   -0.26706
 Alpha virt. eigenvalues --   -0.01220   0.03208   0.03912   0.03957   0.04213
 Alpha virt. eigenvalues --    0.04920   0.05080   0.05365   0.06156   0.06190
 Alpha virt. eigenvalues --    0.06954   0.07041   0.07703   0.07784   0.08039

 Mulliken charges:
               1
     1  O   -0.533498
     2  O   -0.533512
     3  C   -0.457737
     4  C   -0.452963
     5  C   -0.048315
     6  C   -0.034031
     7  C   -0.697535
     8  C   -0.688285
     9  C    0.302670
    10  C    0.293834
    11  C    0.191197
    12  C    0.189708
    13  C   -0.390714
    14  C   -0.389439
    15  O   -0.107375
    16  C    1.216356
    17  C    0.322641
    18  C   -0.412632
    19  C   -0.396511
    20  C   -0.461525
    21  C   -0.190907
    22  C    0.051243
    23  H    0.216789
    24  H    0.216799
    25  H    0.227593
    26  H    0.227822
    27  H    0.179096
    28  H    0.178600
    29  H    0.218607
    30  H    0.224337
    31  H    0.207142
    32  H    0.248333
    33  C    0.153885
    34  O   -0.567792
    35  O   -0.503880
 Sum of Mulliken charges =  -2.00000

 Dipole moment (field-independent basis, Debye):
    X=             -8.7976    Y=            -12.3904    Z=             -0.0805  Tot=             15.1963
 Quadrupole moment (field-independent basis, Debye-Ang):
   XX=           -204.1304   YY=           -193.2060   ZZ=           -265.0993
   XY=             33.7488   XZ=              0.4181   YZ=             -0.7418

 Normal termination of Gaussian 09 at Mon Feb 17 10:16:53 2020.
