 Gaussian 09, Revision D.01,
 Gaussian 09:  ES64L-G09RevD.01 24-Apr-2013

 ----------------------------------------------------------------------
 #p CAM-B3LYP/6-311++G** nosym density=current geom=allcheck EmpiricalD
 ispersion=GD3 SCRF=(CPCM, solvent=ethanol) IOP(10/74=10) TD=(NSTATES=1
 0,ROOT=1,NONEQ) iop(3/119=0810000000) iop(3/120=0810000000)
 ----------------------------------------------------------------------

 Structure from the checkpoint file:  "checkpointCPCM_ethanolES.chk"
 -------
 dianion
 -------
 Charge = -2 Multiplicity = 1

                          Input orientation:
 ---------------------------------------------------------------------
 Center     Atomic      Atomic             Coordinates (Angstroms)
 Number     Number       Type             X           Y           Z
 ---------------------------------------------------------------------
      1          8           0        2.811880   -0.611215   -4.710148
      2          8           0        2.734586   -0.152616    4.690734
      3          6           0        2.729735   -0.487102   -2.341745
      4          6           0        2.690410   -0.254857    2.320439
      5          6           0        0.672449   -0.454718   -3.677107
      6          6           0        0.611055   -0.125448    3.613316
      7          6           0       -0.070508   -0.382237   -2.537113
      8          6           0       -0.113735   -0.170263    2.460140
      9          6           0        0.531824   -0.362393   -1.242429
     10          6           0        0.510060   -0.247106    1.178807
     11          6           0        1.958931   -0.409815   -1.209872
     12          6           0        1.937552   -0.291732    1.174313
     13          6           0        2.130389   -0.520740   -3.651265
     14          6           0        2.069950   -0.166307    3.617070
     15          8           0        2.621460   -0.373603   -0.010965
     16          6           0       -0.185198   -0.278777   -0.040021
     17          6           0       -1.675997   -0.337056   -0.051899
     18          6           0       -2.240975   -1.600209   -0.281466
     19          6           0       -3.620028   -1.778465   -0.278009
     20          6           0       -4.457343   -0.686105   -0.042786
     21          6           0       -3.900712    0.565786    0.191232
     22          6           0       -2.511926    0.764291    0.185811
     23          1           0        3.809719   -0.528966   -2.255450
     24          1           0        3.771948   -0.299042    2.256505
     25          1           0        0.195249   -0.467053   -4.651799
     26          1           0        0.117048   -0.061987    4.577549
     27          1           0       -1.152625   -0.340257   -2.595170
     28          1           0       -1.196979   -0.144691    2.499311
     29          1           0       -1.587921   -2.448368   -0.457082
     30          1           0       -4.037727   -2.762054   -0.460554
     31          1           0       -5.534244   -0.815836   -0.044135
     32          1           0       -4.527763    1.428289    0.379845
     33          6           0       -1.949456    2.199232    0.407704
     34          8           0       -2.726446    3.026344    0.943409
     35          8           0       -0.771470    2.409531    0.039203
 ---------------------------------------------------------------------

 SCF Done:  E(RCAM-B3LYP) =  -1143.54256033     A.U. after   17 cycles

 Excitation energies and oscillator strengths:

 Excited state symmetry could not be determined.
 Excited State   1:      Singlet-?Sym    2.9997 eV  413.32 nm  f=1.0337  <S**2>=0.000
      86 -> 87         0.68862
 This state for optimization and/or second-order correction.
 Total Energy, E(TD-HF/TD-KS) =  -1143.43232198
 Copying the excited state density for this state as the 1-particle RhoCI density.

 Excited state symmetry could not be determined.
 Excited State   2:      Singlet-?Sym    4.2813 eV  289.59 nm  f=0.0268  <S**2>=0.000
      84 -> 87        -0.26281
      85 -> 87         0.56255
      86 -> 97         0.15351
      86 -> 98         0.16165

 Excited state symmetry could not be determined.
 Excited State   3:      Singlet-?Sym    4.6938 eV  264.14 nm  f=0.0051  <S**2>=0.000
      80 -> 87        -0.15268
      81 ->103         0.21532
      82 -> 87         0.42896
      83 -> 87         0.30219
      84 -> 87         0.10502
      85 -> 87         0.13161

 Excited state symmetry could not be determined.
 Excited State   4:      Singlet-?Sym    4.7283 eV  262.22 nm  f=0.0040  <S**2>=0.000
      82 -> 87        -0.20821
      84 -> 87         0.23106
      85 -> 87         0.34510
      86 -> 90         0.12892
      86 -> 91        -0.15256
      86 -> 94        -0.15788
      86 -> 97        -0.22580
      86 -> 98        -0.24300
      86 ->103        -0.14989

 Excited state symmetry could not be determined.
 Excited State   5:      Singlet-?Sym    4.7610 eV  260.42 nm  f=0.0003  <S**2>=0.000
      80 -> 87         0.22802
      81 -> 87         0.51849
      82 ->103         0.20990
      83 ->103         0.10996

 Excited state symmetry could not be determined.
 Excited State   6:      Singlet-?Sym    4.8621 eV  255.00 nm  f=0.0045  <S**2>=0.000
      76 -> 87        -0.23150
      85 -> 97         0.15471
      85 -> 98         0.15917
      86 -> 91        -0.14049
      86 -> 94         0.18474
      86 -> 97         0.10074
      86 -> 98        -0.12622
      86 -> 99         0.19013
      86 ->101         0.18631
      86 ->102         0.38779

 Excited state symmetry could not be determined.
 Excited State   7:      Singlet-?Sym    5.0153 eV  247.21 nm  f=0.4106  <S**2>=0.000
      84 -> 87         0.42701
      86 -> 88        -0.27297
      86 -> 89        -0.27044
      86 -> 94         0.10367
      86 -> 97         0.13516
      86 -> 98         0.15229
      86 ->101         0.11396

 Excited state symmetry could not be determined.
 Excited State   8:      Singlet-?Sym    5.0418 eV  245.91 nm  f=0.2285  <S**2>=0.000
      84 -> 87         0.30171
      86 -> 88         0.33258
      86 -> 89         0.32012
      86 -> 90        -0.11062
      86 -> 91         0.12873
      86 -> 97         0.18209
      86 -> 98         0.14486
      86 ->101        -0.11215
      86 ->109        -0.10754

 Excited state symmetry could not be determined.
 Excited State   9:      Singlet-?Sym    5.2009 eV  238.39 nm  f=0.0900  <S**2>=0.000
      80 -> 87         0.26420
      81 -> 87        -0.15904
      83 -> 87         0.34145
      83 -> 90         0.10946
      83 -> 91        -0.20137
      84 -> 90        -0.13251
      84 -> 91         0.22409

 Excited state symmetry could not be determined.
 Excited State  10:      Singlet-?Sym    5.2965 eV  234.09 nm  f=0.0121  <S**2>=0.000
      78 -> 87        -0.10136
      78 -> 91         0.13890
      79 -> 94         0.16762
      80 -> 87         0.13229
      80 -> 90         0.13207
      80 -> 91        -0.23818
      81 -> 91         0.10802
      82 -> 91        -0.18381
      82 -> 94         0.10036
      83 -> 94        -0.24393
      84 -> 91        -0.10299
      86 -> 91         0.13596
      86 -> 94        -0.11080

 Alpha  occ. eigenvalues --  -19.31794 -19.19241 -19.19174 -19.18189 -19.18180
 Alpha  occ. eigenvalues --  -10.38705 -10.38358 -10.38306 -10.36363 -10.36291
 Alpha  occ. eigenvalues --  -10.35558 -10.32392 -10.31250 -10.31233 -10.31175
 Alpha  occ. eigenvalues --  -10.30955 -10.30828 -10.30697 -10.30641 -10.30637
 Alpha  occ. eigenvalues --  -10.30337 -10.28820 -10.28756 -10.28010 -10.27966
 Alpha  occ. eigenvalues --   -1.25490  -1.16712  -1.13266  -1.13186  -1.07268
 Alpha  occ. eigenvalues --   -1.03055  -1.00334  -1.00001  -0.94145  -0.91717
 Alpha  occ. eigenvalues --   -0.89711  -0.89081  -0.87368  -0.85742  -0.78777
 Alpha  occ. eigenvalues --   -0.77679  -0.76186  -0.75061  -0.72518  -0.71859
 Alpha  occ. eigenvalues --   -0.67126  -0.66399  -0.66172  -0.63699  -0.61172
 Alpha  occ. eigenvalues --   -0.60535  -0.59889  -0.58440  -0.58149  -0.57470
 Alpha  occ. eigenvalues --   -0.56931  -0.55668  -0.55592  -0.54888  -0.53689
 Alpha  occ. eigenvalues --   -0.53493  -0.52407  -0.51934  -0.51620  -0.51415
 Alpha  occ. eigenvalues --   -0.50175  -0.50045  -0.48758  -0.48332  -0.48140
 Alpha  occ. eigenvalues --   -0.46739  -0.46617  -0.45462  -0.43655  -0.43478
 Alpha  occ. eigenvalues --   -0.37050  -0.36422  -0.35998  -0.35736  -0.35177
 Alpha  occ. eigenvalues --   -0.34997  -0.34662  -0.34212  -0.33304  -0.31578
 Alpha  occ. eigenvalues --   -0.26082
 Alpha virt. eigenvalues --   -0.00716   0.03613   0.04378   0.04628   0.04743
 Alpha virt. eigenvalues --    0.05347   0.05505   0.05822   0.06532   0.06667
 Alpha virt. eigenvalues --    0.07493   0.07582   0.08165   0.08267   0.08521

 Mulliken charges:
               1
     1  O   -0.526337
     2  O   -0.524639
     3  C   -0.500777
     4  C   -0.395439
     5  C   -0.057413
     6  C    0.051846
     7  C   -0.774543
     8  C   -0.598571
     9  C    0.303595
    10  C    0.206636
    11  C    0.203608
    12  C    0.170737
    13  C   -0.388281
    14  C   -0.395512
    15  O   -0.105154
    16  C    1.251606
    17  C    0.336419
    18  C   -0.383773
    19  C   -0.404145
    20  C   -0.452697
    21  C   -0.204999
    22  C    0.104853
    23  H    0.215566
    24  H    0.216285
    25  H    0.225988
    26  H    0.227322
    27  H    0.178001
    28  H    0.186953
    29  H    0.220061
    30  H    0.218326
    31  H    0.206342
    32  H    0.244050
    33  C   -0.036506
    34  O   -0.540056
    35  O   -0.479352
 Sum of Mulliken charges =  -2.00000

 Dipole moment (field-independent basis, Debye):
    X=             -8.5243    Y=            -11.9191    Z=             -2.4403  Tot=             14.8554
 Quadrupole moment (field-independent basis, Debye-Ang):
   XX=           -203.0444   YY=           -191.3570   ZZ=           -266.1657
   XY=             31.7030   XZ=              8.9800   YZ=            -12.7477

 Normal termination of Gaussian 09 at Mon Feb 17 10:26:31 2020.
