 Gaussian 09, Revision D.01,
 Gaussian 09:  ES64L-G09RevD.01 24-Apr-2013

 ----------------------------------------------------------------------
 #p CAM-B3LYP/6-311++G** nosym density=current geom=allcheck EmpiricalD
 ispersion=GD3 SCRF=(CPCM, solvent=acetonitrile) IOP(10/74=10) TD=(NSTA
 TES=10,ROOT=1,NONEQ) iop(3/119=0810000000) iop(3/120=0810000000)
 ----------------------------------------------------------------------

 Structure from the checkpoint file:  "checkpointCPCMES.chk"
 -------
 dianion
 -------
 Charge = -2 Multiplicity = 1

                          Input orientation:
 ---------------------------------------------------------------------
 Center     Atomic      Atomic             Coordinates (Angstroms)
 Number     Number       Type             X           Y           Z
 ---------------------------------------------------------------------
      1          8           0        2.768467   -0.406481   -4.709971
      2          8           0        2.778195   -0.367989    4.705307
      3          6           0        2.709759   -0.376453   -2.339491
      4          6           0        2.714303   -0.357170    2.334865
      5          6           0        0.640423   -0.328609   -3.651904
      6          6           0        0.647782   -0.302368    3.651320
      7          6           0       -0.092748   -0.302557   -2.501506
      8          6           0       -0.087865   -0.284646    2.502457
      9          6           0        0.523218   -0.311113   -1.213904
     10          6           0        0.525280   -0.299308    1.213256
     11          6           0        1.949348   -0.345217   -1.196047
     12          6           0        1.951577   -0.334121    1.192802
     13          6           0        2.096189   -0.367655   -3.640281
     14          6           0        2.103494   -0.341451    3.636886
     15          8           0        2.623150   -0.346439   -0.002153
     16          6           0       -0.181882   -0.264979   -0.000133
     17          6           0       -1.673867   -0.332362    0.002430
     18          6           0       -2.236187   -1.616774   -0.008892
     19          6           0       -3.616347   -1.795087   -0.011259
     20          6           0       -4.455294   -0.679792   -0.004426
     21          6           0       -3.900895    0.595025    0.005447
     22          6           0       -2.514469    0.792933    0.010271
     23          1           0        3.790729   -0.405877   -2.266330
     24          1           0        3.795134   -0.387003    2.259754
     25          1           0        0.152592   -0.320528   -4.621073
     26          1           0        0.161963   -0.289231    4.621428
     27          1           0       -1.175182   -0.270022   -2.548545
     28          1           0       -1.170156   -0.254755    2.551990
     29          1           0       -1.578248   -2.478915   -0.015500
     30          1           0       -4.031295   -2.796298   -0.019907
     31          1           0       -5.531983   -0.804804   -0.008000
     32          1           0       -4.534175    1.474379    0.009887
     33          6           0       -1.967200    2.230029    0.013165
     34          8           0       -2.821984    3.152005    0.066374
     35          8           0       -0.718632    2.358086   -0.021943
 ---------------------------------------------------------------------

 SCF Done:  E(RCAM-B3LYP) =  -1143.54591602     A.U. after   17 cycles

 Excitation energies and oscillator strengths:

 Excited state symmetry could not be determined.
 Excited State   1:      Singlet-?Sym    3.0239 eV  410.01 nm  f=1.0331  <S**2>=0.000
      86 -> 87         0.68873
 This state for optimization and/or second-order correction.
 Total Energy, E(TD-HF/TD-KS) =  -1143.43478979
 Copying the excited state density for this state as the 1-particle RhoCI density.

 Excited state symmetry could not be determined.
 Excited State   2:      Singlet-?Sym    4.2891 eV  289.07 nm  f=0.0255  <S**2>=0.000
      84 -> 87         0.29542
      85 -> 87         0.54821
      86 -> 97        -0.22339

 Excited state symmetry could not be determined.
 Excited State   3:      Singlet-?Sym    4.7050 eV  263.52 nm  f=0.0175  <S**2>=0.000
      84 -> 87        -0.29401
      85 -> 87         0.39513
      86 -> 90         0.19331
      86 -> 94        -0.17389
      86 -> 97         0.32984
      86 ->103         0.16830

 Excited state symmetry could not be determined.
 Excited State   4:      Singlet-?Sym    4.7145 eV  262.98 nm  f=0.0001  <S**2>=0.000
      79 -> 87         0.18151
      81 ->103        -0.19346
      81 ->106        -0.10712
      82 ->103         0.18326
      82 ->106         0.10149
      83 -> 87         0.55445

 Excited state symmetry could not be determined.
 Excited State   5:      Singlet-?Sym    4.7756 eV  259.62 nm  f=0.0000  <S**2>=0.000
      79 ->103        -0.11400
      81 -> 87         0.41783
      82 -> 87        -0.39968
      83 ->103        -0.24960
      83 ->106        -0.13759

 Excited state symmetry could not be determined.
 Excited State   6:      Singlet-?Sym    4.8819 eV  253.97 nm  f=0.0002  <S**2>=0.000
      76 -> 87        -0.24895
      84 ->103         0.10389
      85 -> 97        -0.23232
      86 -> 98         0.22076
      86 -> 99         0.28825
      86 ->101         0.17182
      86 ->102         0.36913

 Excited state symmetry could not be determined.
 Excited State   7:      Singlet-?Sym    5.0169 eV  247.13 nm  f=0.6362  <S**2>=0.000
      84 -> 87         0.52496
      86 -> 90         0.20502
      86 -> 94        -0.14214
      86 -> 97         0.32416

 Excited state symmetry could not be determined.
 Excited State   8:      Singlet-?Sym    5.0437 eV  245.82 nm  f=0.0006  <S**2>=0.000
      86 -> 88         0.43539
      86 -> 89         0.42083
      86 -> 95        -0.11128
      86 ->101        -0.14475
      86 ->109        -0.15254

 Excited state symmetry could not be determined.
 Excited State   9:      Singlet-?Sym    5.1954 eV  238.64 nm  f=0.0002  <S**2>=0.000
      77 -> 90         0.23436
      80 -> 90         0.24656
      84 -> 90         0.40077
      84 -> 91         0.12217
      84 ->116         0.10887
      84 ->119        -0.10842
      85 -> 90        -0.17731

 Excited state symmetry could not be determined.
 Excited State  10:      Singlet-?Sym    5.3030 eV  233.80 nm  f=0.0020  <S**2>=0.000
      78 -> 90         0.18203
      79 -> 90         0.26562
      79 -> 94        -0.15613
      80 -> 90         0.14804
      81 -> 90         0.11871
      81 -> 94         0.18393
      82 -> 90         0.12006
      82 -> 94         0.18831
      83 -> 90        -0.17939
      86 -> 90         0.25798
      86 -> 91         0.13210
      86 -> 94         0.19305

 Alpha  occ. eigenvalues --  -19.32033 -19.19361 -19.19355 -19.18501 -19.18421
 Alpha  occ. eigenvalues --  -10.38921 -10.38574 -10.38570 -10.36487 -10.36483
 Alpha  occ. eigenvalues --  -10.35924 -10.32658 -10.31468 -10.31458 -10.31297
 Alpha  occ. eigenvalues --  -10.31161 -10.31077 -10.30886 -10.30870 -10.30767
 Alpha  occ. eigenvalues --  -10.30442 -10.29011 -10.29006 -10.28221 -10.28218
 Alpha  occ. eigenvalues --   -1.25699  -1.16852  -1.13374  -1.13353  -1.07503
 Alpha  occ. eigenvalues --   -1.03223  -1.00554  -1.00215  -0.94352  -0.91904
 Alpha  occ. eigenvalues --   -0.89978  -0.89275  -0.87586  -0.85994  -0.79034
 Alpha  occ. eigenvalues --   -0.77914  -0.76452  -0.75323  -0.72785  -0.72069
 Alpha  occ. eigenvalues --   -0.67411  -0.66597  -0.66473  -0.63963  -0.61464
 Alpha  occ. eigenvalues --   -0.60776  -0.60092  -0.58626  -0.58422  -0.57632
 Alpha  occ. eigenvalues --   -0.57131  -0.55891  -0.55850  -0.55046  -0.53885
 Alpha  occ. eigenvalues --   -0.53834  -0.52582  -0.52328  -0.51916  -0.51602
 Alpha  occ. eigenvalues --   -0.50383  -0.50254  -0.48819  -0.48430  -0.48268
 Alpha  occ. eigenvalues --   -0.46922  -0.46854  -0.45600  -0.43843  -0.43703
 Alpha  occ. eigenvalues --   -0.37254  -0.36429  -0.36313  -0.35552  -0.35422
 Alpha  occ. eigenvalues --   -0.35249  -0.35228  -0.34743  -0.33434  -0.31756
 Alpha  occ. eigenvalues --   -0.26347
 Alpha virt. eigenvalues --   -0.00860   0.03433   0.04196   0.04259   0.04470
 Alpha virt. eigenvalues --    0.05136   0.05302   0.05671   0.06384   0.06449
 Alpha virt. eigenvalues --    0.07285   0.07313   0.07983   0.08029   0.08284

 Mulliken charges:
               1
     1  O   -0.530578
     2  O   -0.530719
     3  C   -0.459909
     4  C   -0.455480
     5  C   -0.047078
     6  C   -0.028393
     7  C   -0.693808
     8  C   -0.682997
     9  C    0.305775
    10  C    0.289416
    11  C    0.192035
    12  C    0.189551
    13  C   -0.391930
    14  C   -0.391255
    15  O   -0.108436
    16  C    1.207221
    17  C    0.315847
    18  C   -0.415579
    19  C   -0.393933
    20  C   -0.461708
    21  C   -0.186299
    22  C    0.053356
    23  H    0.215954
    24  H    0.215967
    25  H    0.226567
    26  H    0.226753
    27  H    0.178501
    28  H    0.177894
    29  H    0.217730
    30  H    0.222443
    31  H    0.205625
    32  H    0.248431
    33  C    0.154703
    34  O   -0.564642
    35  O   -0.501025
 Sum of Mulliken charges =  -2.00000

 Dipole moment (field-independent basis, Debye):
    X=             -8.6863    Y=            -12.1743    Z=             -0.1319  Tot=             14.9560
 Quadrupole moment (field-independent basis, Debye-Ang):
   XX=           -204.4259   YY=           -192.9054   ZZ=           -264.8194
   XY=             33.5219   XZ=              0.5414   YZ=             -0.9507

 Normal termination of Gaussian 09 at Mon Feb 17 10:22:58 2020.
