 Gaussian 09, Revision D.01,
 Gaussian 09:  ES64L-G09RevD.01 24-Apr-2013

 ----------------------------------------------------------------------
 #p CAM-B3LYP/6-311++G** nosym density=current geom=allcheck EmpiricalD
 ispersion=GD3 SCRF=(CPCM, solvent=ethanol) IOP(10/74=10) TD=(NSTATES=1
 0,ROOT=1,NONEQ) iop(3/119=0810000000) iop(3/120=0810000000)
 ----------------------------------------------------------------------

 Structure from the checkpoint file:  "checkpointCPCM_ethanolES.chk"
 --------
 NRA_NRA1
 --------
 Charge =  0 Multiplicity = 1

                          Input orientation:
 ---------------------------------------------------------------------
 Center     Atomic      Atomic             Coordinates (Angstroms)
 Number     Number       Type             X           Y           Z
 ---------------------------------------------------------------------
      1          8           0       -6.855916   -5.176187   -0.876571
      2          6           0       -6.381070   -4.047220   -0.703934
      3          6           0       -4.951580   -3.848448   -0.728308
      4          6           0       -4.387707   -2.645209   -0.455399
      5          8           0       -3.029017   -2.539480   -0.484124
      6          6           0       -2.436121   -1.342459   -0.186937
      7          6           0       -1.062821   -1.277701   -0.224376
      8          6           0       -0.405541   -0.058110    0.086374
      9          7           0        0.949680    0.042109    0.045217
     10          6           0        1.661574    1.251874    0.478170
     11          6           0        1.832943    2.278491   -0.643932
     12          6           0        1.796031   -1.053633   -0.443802
     13          6           0       -1.223728    1.064589    0.440357
     14          6           0       -2.592421    0.969269    0.467846
     15          6           0       -3.253426   -0.238197    0.152254
     16          7           0       -4.608919   -0.329402    0.169592
     17          6           0       -5.169888   -1.477800   -0.126461
     18          6           0       -6.629428   -1.610801   -0.136023
     19          6           0       -7.247883   -2.847626   -0.451426
     20          6           0       -8.669714   -2.890059   -0.487583
     21          6           0       -9.475531   -4.124645   -0.861470
     22          9           0       -9.160649   -4.621457   -2.078583
     23          9           0       -9.383829   -5.124208    0.044739
     24          9           0      -10.808694   -3.840501   -0.934738
     25          6           0       -9.411021   -1.752060   -0.188443
     26          6           0       -8.782453   -0.550150    0.145746
     27          6           0       -7.406631   -0.478152    0.163877
     28          6           0        2.187025   -2.044855    0.655273
     29          1           0       -4.332461   -4.709276   -0.946220
     30          1           0       -0.519418   -2.176606   -0.473141
     31          1           0        2.639077    0.931942    0.844656
     32          1           0        1.148710    1.689770    1.335668
     33          1           0        2.390656    3.144306   -0.277884
     34          1           0        2.384159    1.846053   -1.482668
     35          1           0        0.864813    2.623008   -1.013937
     36          1           0        2.691132   -0.599322   -0.873582
     37          1           0        1.291377   -1.561175   -1.267779
     38          1           0       -0.768229    2.015652    0.671001
     39          1           0       -3.198263    1.830000    0.725746
     40          1           0      -10.490013   -1.788588   -0.217708
     41          1           0       -9.381309    0.321749    0.378909
     42          1           0       -6.902306    0.447511    0.405794
     43          1           0        2.828847   -2.827516    0.242699
     44          1           0        2.734817   -1.539473    1.454585
     45          1           0        1.305244   -2.518006    1.092928
 ---------------------------------------------------------------------

 SCF Done:  E(RCAM-B3LYP) =  -1368.81277287     A.U. after   19 cycles

 Excitation energies and oscillator strengths:

 Excited state symmetry could not be determined.
 Excited State   1:      Singlet-?Sym    2.7146 eV  456.73 nm  f=1.1786  <S**2>=0.000
      99 ->101         0.10440
     100 ->101         0.67913
 This state for optimization and/or second-order correction.
 Total Energy, E(TD-HF/TD-KS) =  -1368.71301221
 Copying the excited state density for this state as the 1-particle RhoCI density.

 Excited state symmetry could not be determined.
 Excited State   2:      Singlet-?Sym    3.9591 eV  313.16 nm  f=0.0038  <S**2>=0.000
      96 ->101         0.51230
      96 ->102        -0.24321
      96 ->130        -0.13023
      97 ->101         0.10502
      98 ->101        -0.10031
      99 ->101         0.27737

 Excited state symmetry could not be determined.
 Excited State   3:      Singlet-?Sym    3.9866 eV  311.01 nm  f=0.0157  <S**2>=0.000
      96 ->101        -0.27522
      96 ->102         0.13253
      98 ->101        -0.21142
      99 ->101         0.53646
     100 ->102        -0.11841
     100 ->106        -0.10810

 Excited state symmetry could not be determined.
 Excited State   4:      Singlet-?Sym    4.2130 eV  294.29 nm  f=0.0021  <S**2>=0.000
      94 ->101         0.65725
      94 ->102         0.11777

 Excited state symmetry could not be determined.
 Excited State   5:      Singlet-?Sym    4.5549 eV  272.20 nm  f=0.0843  <S**2>=0.000
      95 ->101         0.17318
      98 ->102         0.20112
      99 ->101         0.13813
     100 ->102         0.51682
     100 ->106         0.13402
     100 ->110        -0.23947
     100 ->115         0.13093

 Excited state symmetry could not be determined.
 Excited State   6:      Singlet-?Sym    4.7065 eV  263.43 nm  f=0.0010  <S**2>=0.000
      95 ->101        -0.14216
      97 ->101        -0.30889
      98 ->102         0.12742
      99 ->102         0.11405
     100 ->102         0.23722
     100 ->106        -0.22955
     100 ->110         0.35484
     100 ->115        -0.11614

 Excited state symmetry could not be determined.
 Excited State   7:      Singlet-?Sym    4.8031 eV  258.14 nm  f=0.0268  <S**2>=0.000
      95 ->101         0.34787
      97 ->102        -0.15471
      98 ->101        -0.29551
      98 ->102         0.12425
      99 ->101        -0.25668
      99 ->102        -0.18410
     100 ->106        -0.28825

 Excited state symmetry could not be determined.
 Excited State   8:      Singlet-?Sym    5.1020 eV  243.01 nm  f=0.1470  <S**2>=0.000
      95 ->102         0.10956
      97 ->101         0.45198
      98 ->101        -0.24739
     100 ->102         0.16666
     100 ->110         0.21650
     100 ->112        -0.15313
     100 ->117        -0.10169

 Excited state symmetry could not be determined.
 Excited State   9:      Singlet-?Sym    5.2985 eV  234.00 nm  f=0.0218  <S**2>=0.000
      95 ->101         0.12770
      97 ->101        -0.31881
      98 ->101        -0.26965
      98 ->102        -0.11539
      99 ->106         0.11275
     100 ->102        -0.15771
     100 ->105        -0.13646
     100 ->106         0.38022
     100 ->112        -0.15943

 Excited state symmetry could not be determined.
 Excited State  10:      Singlet-?Sym    5.3711 eV  230.84 nm  f=0.0027  <S**2>=0.000
     100 ->103         0.51736
     100 ->107         0.21684
     100 ->108         0.13445
     100 ->114         0.27580

 Alpha  occ. eigenvalues --  -24.85338 -24.85168 -24.85110 -19.34854 -19.24163
 Alpha  occ. eigenvalues --  -14.49046 -14.48077 -10.57951 -10.41844 -10.41237
 Alpha  occ. eigenvalues --  -10.40484 -10.38478 -10.38246 -10.36158 -10.35629
 Alpha  occ. eigenvalues --  -10.35417 -10.35285 -10.34250 -10.34243 -10.33709
 Alpha  occ. eigenvalues --  -10.33208 -10.33183 -10.33131 -10.31743 -10.31718
 Alpha  occ. eigenvalues --  -10.31494 -10.29504 -10.29490  -1.47491  -1.38240
 Alpha  occ. eigenvalues --   -1.37890  -1.28953  -1.19110  -1.12800  -1.12298
 Alpha  occ. eigenvalues --   -1.05569  -1.02926  -0.98825  -0.95834  -0.94176
 Alpha  occ. eigenvalues --   -0.92872  -0.92331  -0.90574  -0.88107  -0.85795
 Alpha  occ. eigenvalues --   -0.83568  -0.82196  -0.80139  -0.79167  -0.77999
 Alpha  occ. eigenvalues --   -0.77337  -0.75273  -0.73761  -0.73579  -0.72491
 Alpha  occ. eigenvalues --   -0.71010  -0.69271  -0.67074  -0.66581  -0.65490
 Alpha  occ. eigenvalues --   -0.63684  -0.63109  -0.62097  -0.61942  -0.61720
 Alpha  occ. eigenvalues --   -0.60965  -0.59728  -0.59133  -0.58618  -0.57875
 Alpha  occ. eigenvalues --   -0.57571  -0.56591  -0.56466  -0.55853  -0.55809
 Alpha  occ. eigenvalues --   -0.55332  -0.55218  -0.54850  -0.54411  -0.53917
 Alpha  occ. eigenvalues --   -0.53430  -0.53045  -0.51497  -0.50827  -0.50554
 Alpha  occ. eigenvalues --   -0.49912  -0.49911  -0.49662  -0.49086  -0.48069
 Alpha  occ. eigenvalues --   -0.47205  -0.46257  -0.43666  -0.41114  -0.39287
 Alpha  occ. eigenvalues --   -0.38828  -0.38381  -0.37351  -0.34486  -0.28512
 Alpha virt. eigenvalues --   -0.05056   0.00673   0.02854   0.03477   0.03728
 Alpha virt. eigenvalues --    0.04072   0.04353   0.04409   0.05049   0.05414
 Alpha virt. eigenvalues --    0.05855   0.06269   0.06453   0.06614   0.06773

 Mulliken charges:
               1
     1  O   -0.388943
     2  C   -0.652798
     3  C   -0.642716
     4  C    0.269808
     5  O   -0.089725
     6  C    0.239986
     7  C   -0.262374
     8  C   -0.248385
     9  N    0.235793
    10  C   -0.320878
    11  C   -0.443023
    12  C   -0.335399
    13  C   -0.186559
    14  C   -0.396270
    15  C    0.171946
    16  N    0.124608
    17  C    0.070824
    18  C    0.056637
    19  C    0.224332
    20  C    0.253288
    21  C    0.865420
    22  F   -0.080196
    23  F   -0.065534
    24  F   -0.163763
    25  C   -0.633456
    26  C   -0.518291
    27  C   -0.037106
    28  C   -0.427727
    29  H    0.231266
    30  H    0.273570
    31  H    0.208539
    32  H    0.181101
    33  H    0.164145
    34  H    0.167962
    35  H    0.144827
    36  H    0.210745
    37  H    0.185621
    38  H    0.237051
    39  H    0.250048
    40  H    0.193228
    41  H    0.237788
    42  H    0.220492
    43  H    0.161143
    44  H    0.164957
    45  H    0.148020
 Sum of Mulliken charges =   0.00000

 Dipole moment (field-independent basis, Debye):
    X=             19.9288    Y=             13.8327    Z=              2.7008  Tot=             24.4089
 Quadrupole moment (field-independent basis, Debye-Ang):
   XX=           -279.6662   YY=           -223.2666   ZZ=           -168.4511
   XY=           -104.9989   XZ=            -21.0233   YZ=             -8.9006

 Normal termination of Gaussian 09 at Mon Feb 17 13:49:29 2020.
