 Gaussian 09, Revision D.01,
 Gaussian 09:  ES64L-G09RevD.01 24-Apr-2013

 ----------------------------------------------------------------------
 #p CAM-B3LYP/6-311++G** nosym density=current geom=allcheck EmpiricalD
 ispersion=GD3 SCRF=(CPCM, solvent=ethanol) IOP(10/74=10) TD=(NSTATES=1
 0,ROOT=1,NONEQ) iop(3/119=0810000000) iop(3/120=0810000000)
 ----------------------------------------------------------------------

 Structure from the checkpoint file:  "checkpointCPCM_ethanolES.chk"
 ---
 Nil
 ---
 Charge =  0 Multiplicity = 1

                          Input orientation:
 ---------------------------------------------------------------------
 Center     Atomic      Atomic             Coordinates (Angstroms)
 Number     Number       Type             X           Y           Z
 ---------------------------------------------------------------------
      1          6           0        2.763117   -1.610496   -0.205735
      2          6           0        1.431121   -1.943098   -0.236198
      3          6           0        0.423749   -0.961957   -0.114095
      4          6           0        0.854174    0.375729    0.038933
      5          6           0        2.181002    0.740581    0.072482
      6          6           0        3.188475   -0.251593   -0.046998
      7          6           0       -1.410367    1.054222    0.119761
      8          6           0       -1.789769   -0.338608   -0.029115
      9          6           0       -3.220197   -0.644370   -0.052462
     10          6           0       -4.164481    0.400170    0.063512
     11          6           0       -3.729333    1.817701    0.210190
     12          6           0       -2.308897    2.069927    0.231154
     13          1           0        3.493784   -2.401042   -0.285277
     14          1           0        1.125675   -2.976901   -0.348056
     15          1           0        2.414797    1.789743    0.172106
     16          1           0       -1.967202    3.091676    0.339337
     17          8           0       -0.083460    1.366286    0.150686
     18          7           0       -0.896325   -1.291409   -0.141441
     19          7           0        4.509363    0.074762   -0.008596
     20          6           0        4.963662    1.442088    0.271207
     21          1           0        4.305796    1.898134    1.013295
     22          1           0        5.943791    1.364150    0.746067
     23          6           0        5.568259   -0.913846   -0.249198
     24          1           0        5.245598   -1.613783   -1.021453
     25          1           0        6.418435   -0.374070   -0.671168
     26          6           0        5.996614   -1.654954    1.019983
     27          1           0        5.164465   -2.218214    1.448205
     28          1           0        6.804925   -2.354424    0.791432
     29          1           0        6.356118   -0.951505    1.775197
     30          6           0        5.059444    2.310484   -0.985925
     31          1           0        5.753490    1.869984   -1.706177
     32          1           0        4.086080    2.413927   -1.470515
     33          1           0        5.422871    3.308112   -0.726243
     34          8           0       -4.557735    2.738379    0.310544
     35          6           0       -3.675147   -1.967742   -0.189499
     36          6           0       -5.534035    0.100419    0.040568
     37          6           0       -5.969567   -1.209161   -0.094536
     38          1           0       -5.370172   -3.270829   -0.315853
     39          6           0       -5.032993   -2.246001   -0.209917
     40          1           0       -7.030342   -1.431105   -0.111113
     41          1           0       -2.948768   -2.765087   -0.278392
     42          1           0       -6.240315    0.916288    0.130825
 ---------------------------------------------------------------------

 SCF Done:  E(RCAM-B3LYP) =  -1031.90588881     A.U. after   18 cycles

 Excitation energies and oscillator strengths:

 Excited state symmetry could not be determined.
 Excited State   1:      Singlet-?Sym    2.7609 eV  449.07 nm  f=1.1608  <S**2>=0.000
      83 -> 85        -0.10745
      84 -> 85         0.67963
 This state for optimization and/or second-order correction.
 Total Energy, E(TD-HF/TD-KS) =  -1031.80442834
 Copying the excited state density for this state as the 1-particle RhoCI density.

 Excited state symmetry could not be determined.
 Excited State   2:      Singlet-?Sym    3.9713 eV  312.20 nm  f=0.0168  <S**2>=0.000
      82 -> 85         0.24692
      83 -> 85         0.59920
      84 -> 86         0.14561
      84 -> 92        -0.10840

 Excited state symmetry could not be determined.
 Excited State   3:      Singlet-?Sym    4.0271 eV  307.88 nm  f=0.0001  <S**2>=0.000
      78 -> 85        -0.10777
      80 -> 85         0.58846
      80 -> 86        -0.28505
      80 ->115         0.12717

 Excited state symmetry could not be determined.
 Excited State   4:      Singlet-?Sym    4.2332 eV  292.88 nm  f=0.0020  <S**2>=0.000
      78 -> 85         0.65520
      80 -> 86        -0.11379

 Excited state symmetry could not be determined.
 Excited State   5:      Singlet-?Sym    4.6074 eV  269.10 nm  f=0.0639  <S**2>=0.000
      79 -> 85         0.25593
      82 -> 85        -0.11572
      84 -> 86         0.35063
      84 -> 92        -0.24528
      84 -> 94         0.32812
      84 -> 99        -0.18804

 Excited state symmetry could not be determined.
 Excited State   6:      Singlet-?Sym    4.6818 eV  264.82 nm  f=0.0232  <S**2>=0.000
      81 -> 85         0.47592
      81 -> 92        -0.11706
      82 -> 85        -0.27705
      82 -> 86         0.17414
      84 -> 86         0.17633
      84 -> 92         0.19815

 Excited state symmetry could not be determined.
 Excited State   7:      Singlet-?Sym    4.8139 eV  257.56 nm  f=0.0248  <S**2>=0.000
      79 -> 85        -0.29485
      81 -> 85         0.16514
      82 -> 85         0.32253
      83 -> 85        -0.29795
      83 -> 86        -0.19060
      84 -> 86         0.28779
      84 -> 92        -0.15586

 Excited state symmetry could not be determined.
 Excited State   8:      Singlet-?Sym    5.0175 eV  247.10 nm  f=0.2230  <S**2>=0.000
      81 -> 85         0.36570
      82 -> 85         0.21168
      83 -> 86         0.10132
      84 -> 86        -0.32993
      84 -> 91         0.12683
      84 -> 94         0.29178
      84 -> 97        -0.13620
      84 ->102         0.12523

 Excited state symmetry could not be determined.
 Excited State   9:      Singlet-?Sym    5.3346 eV  232.41 nm  f=0.0029  <S**2>=0.000
      84 -> 87         0.52040
      84 -> 90         0.25174
      84 -> 98         0.27057
      84 ->103         0.11533

 Excited state symmetry could not be determined.
 Excited State  10:      Singlet-?Sym    5.3742 eV  230.70 nm  f=0.0030  <S**2>=0.000
      81 -> 85        -0.19953
      81 -> 86         0.10014
      82 -> 85         0.27469
      82 -> 86         0.26645
      83 -> 92        -0.11573
      84 -> 86         0.15636
      84 -> 92         0.40834
      84 -> 99         0.10936

 Alpha  occ. eigenvalues --  -19.34668 -19.23935 -14.48680 -14.47854 -10.41795
 Alpha  occ. eigenvalues --  -10.40544 -10.40256 -10.38252 -10.38018 -10.35075
 Alpha  occ. eigenvalues --  -10.34218 -10.34160 -10.34150 -10.33146 -10.33000
 Alpha  occ. eigenvalues --  -10.32291 -10.32131 -10.32125 -10.32010 -10.31591
 Alpha  occ. eigenvalues --  -10.31579 -10.31306 -10.29438 -10.29433  -1.28750
 Alpha  occ. eigenvalues --   -1.18354  -1.12439  -1.12068  -1.04442  -1.02003
 Alpha  occ. eigenvalues --   -0.98224  -0.93974  -0.92875  -0.92454  -0.91155
 Alpha  occ. eigenvalues --   -0.89974  -0.87188  -0.83133  -0.81891  -0.79578
 Alpha  occ. eigenvalues --   -0.78519  -0.77165  -0.76095  -0.73729  -0.71353
 Alpha  occ. eigenvalues --   -0.69525  -0.68226  -0.66221  -0.65260  -0.63578
 Alpha  occ. eigenvalues --   -0.62863  -0.62135  -0.60406  -0.59680  -0.58892
 Alpha  occ. eigenvalues --   -0.57989  -0.56701  -0.56434  -0.56331  -0.55801
 Alpha  occ. eigenvalues --   -0.55653  -0.55133  -0.54792  -0.53751  -0.53175
 Alpha  occ. eigenvalues --   -0.52809  -0.51423  -0.50618  -0.50193  -0.49798
 Alpha  occ. eigenvalues --   -0.48942  -0.48817  -0.47923  -0.47331  -0.47152
 Alpha  occ. eigenvalues --   -0.46133  -0.43383  -0.40826  -0.38749  -0.38546
 Alpha  occ. eigenvalues --   -0.36987  -0.36532  -0.34270  -0.28329
 Alpha virt. eigenvalues --   -0.04649   0.02214   0.02861   0.03422   0.03722
 Alpha virt. eigenvalues --    0.04317   0.04368   0.04740   0.04833   0.05563
 Alpha virt. eigenvalues --    0.05749   0.05932   0.06509   0.06657   0.07057

 Mulliken charges:
               1
     1  C   -0.239650
     2  C   -0.407569
     3  C    0.097237
     4  C    0.191443
     5  C   -0.246335
     6  C   -0.198552
     7  C    0.489080
     8  C    0.149319
     9  C    0.475975
    10  C    0.207226
    11  C   -0.567661
    12  C   -0.502914
    13  H    0.234311
    14  H    0.251147
    15  H    0.272137
    16  H    0.226949
    17  O   -0.090298
    18  N    0.092740
    19  N    0.232084
    20  C   -0.328501
    21  H    0.183286
    22  H    0.209759
    23  C   -0.322788
    24  H    0.180621
    25  H    0.208268
    26  C   -0.445116
    27  H    0.144232
    28  H    0.164355
    29  H    0.168550
    30  C   -0.429442
    31  H    0.164828
    32  H    0.147271
    33  H    0.161027
    34  O   -0.442961
    35  C   -0.346543
    36  C   -0.085672
    37  C   -0.417828
    38  H    0.225929
    39  C   -0.425850
    40  H    0.213058
    41  H    0.198931
    42  H    0.207919
 Sum of Mulliken charges =   0.00000

 Dipole moment (field-independent basis, Debye):
    X=             19.5457    Y=             -5.3798    Z=             -0.6512  Tot=             20.2830
 Quadrupole moment (field-independent basis, Debye-Ang):
   XX=           -112.7501   YY=           -146.4554   ZZ=           -146.5723
   XY=             28.1338   XZ=              2.8047   YZ=             -0.1010

 Normal termination of Gaussian 09 at Mon Feb 17 10:18:55 2020.
