 Gaussian 09, Revision D.01,
 Gaussian 09:  ES64L-G09RevD.01 24-Apr-2013

 ----------------------------------------------------------------------
 #p CAM-B3LYP/6-311++G** nosym density=current geom=allcheck EmpiricalD
 ispersion=GD3 SCRF=(CPCM, solvent=water) IOP(10/74=10) TD=(NSTATES=2,R
 OOT=1,NONEQ) iop(3/119=0810000000) iop(3/120=0810000000)
 ----------------------------------------------------------------------

 Structure from the checkpoint file:  "checkpointCPCMES_wat.chk"
 --------
 NRA_NRA1
 --------
 Charge =  0 Multiplicity = 1

                          Input orientation:
 ---------------------------------------------------------------------
 Center     Atomic      Atomic             Coordinates (Angstroms)
 Number     Number       Type             X           Y           Z
 ---------------------------------------------------------------------
      1          8           0       -6.855900   -5.176671   -0.877789
      2          6           0       -6.380595   -4.047224   -0.704450
      3          6           0       -4.951691   -3.848581   -0.728464
      4          6           0       -4.387729   -2.644984   -0.455158
      5          8           0       -3.029264   -2.539542   -0.483787
      6          6           0       -2.435930   -1.342689   -0.186655
      7          6           0       -1.062896   -1.278050   -0.224269
      8          6           0       -0.405545   -0.058237    0.086584
      9          7           0        0.949053    0.042160    0.045214
     10          6           0        1.661180    1.252268    0.477666
     11          6           0        1.832149    2.278114   -0.645116
     12          6           0        1.795810   -1.053700   -0.443465
     13          6           0       -1.223907    1.064679    0.440974
     14          6           0       -2.592295    0.969532    0.468505
     15          6           0       -3.253520   -0.238180    0.152731
     16          7           0       -4.608306   -0.329406    0.170144
     17          6           0       -5.169684   -1.478142   -0.126155
     18          6           0       -6.628898   -1.611141   -0.135690
     19          6           0       -7.247322   -2.848031   -0.451673
     20          6           0       -8.669362   -2.890181   -0.487967
     21          6           0       -9.475281   -4.124068   -0.862905
     22          9           0       -9.160252   -4.620668   -2.080397
     23          9           0       -9.384276   -5.124929    0.042480
     24          9           0      -10.808371   -3.840169   -0.936528
     25          6           0       -9.410710   -1.752420   -0.188231
     26          6           0       -8.782114   -0.550647    0.146751
     27          6           0       -7.406360   -0.478687    0.164849
     28          6           0        2.187088   -2.043910    0.656358
     29          1           0       -4.332044   -4.709064   -0.946336
     30          1           0       -0.519327   -2.176790   -0.473221
     31          1           0        2.638687    0.932219    0.843855
     32          1           0        1.148569    1.690448    1.335093
     33          1           0        2.390246    3.143851   -0.279552
     34          1           0        2.382907    1.845100   -1.483835
     35          1           0        0.863903    2.622768   -1.014701
     36          1           0        2.690629   -0.599133   -0.873407
     37          1           0        1.291236   -1.561783   -1.267088
     38          1           0       -0.768255    2.015604    0.671796
     39          1           0       -3.198007    1.830299    0.726556
     40          1           0      -10.489704   -1.788675   -0.217601
     41          1           0       -9.380982    0.321082    0.380443
     42          1           0       -6.902235    0.446948    0.407263
     43          1           0        2.829354   -2.826360    0.244139
     44          1           0        2.734561   -1.537687    1.455328
     45          1           0        1.305489   -2.517323    1.094112
 ---------------------------------------------------------------------

 SCF Done:  E(RCAM-B3LYP) =  -1368.81332512     A.U. after   19 cycles

 Excitation energies and oscillator strengths:

 Excited state symmetry could not be determined.
 Excited State   1:      Singlet-?Sym    2.7093 eV  457.62 nm  f=1.1742  <S**2>=0.000
      99 ->101         0.10262
     100 ->101         0.67952
 This state for optimization and/or second-order correction.
 Total Energy, E(TD-HF/TD-KS) =  -1368.71375968
 Copying the excited state density for this state as the 1-particle RhoCI density.

 Excited state symmetry could not be determined.
 Excited State   2:      Singlet-?Sym    3.9644 eV  312.75 nm  f=0.0104  <S**2>=0.000
      96 ->101         0.36683
      96 ->102        -0.17302
      98 ->101        -0.17350
      99 ->101         0.46410
     100 ->102        -0.10791

 Alpha  occ. eigenvalues --  -24.85420 -24.85257 -24.85200 -19.34886 -19.24182
 Alpha  occ. eigenvalues --  -14.49077 -14.48069 -10.58029 -10.41871 -10.41269
 Alpha  occ. eigenvalues --  -10.40496 -10.38478 -10.38221 -10.36188 -10.35650
 Alpha  occ. eigenvalues --  -10.35435 -10.35294 -10.34184 -10.34181 -10.33726
 Alpha  occ. eigenvalues --  -10.33214 -10.33175 -10.33136 -10.31730 -10.31701
 Alpha  occ. eigenvalues --  -10.31497 -10.29440 -10.29418  -1.47571  -1.38320
 Alpha  occ. eigenvalues --   -1.37972  -1.28981  -1.19113  -1.12809  -1.12282
 Alpha  occ. eigenvalues --   -1.05585  -1.02929  -0.98831  -0.95861  -0.94179
 Alpha  occ. eigenvalues --   -0.92831  -0.92310  -0.90572  -0.88104  -0.85837
 Alpha  occ. eigenvalues --   -0.83565  -0.82208  -0.80151  -0.79141  -0.77994
 Alpha  occ. eigenvalues --   -0.77342  -0.75270  -0.73846  -0.73643  -0.72508
 Alpha  occ. eigenvalues --   -0.71016  -0.69280  -0.67083  -0.66582  -0.65459
 Alpha  occ. eigenvalues --   -0.63675  -0.63127  -0.62139  -0.61957  -0.61804
 Alpha  occ. eigenvalues --   -0.60959  -0.59776  -0.59111  -0.58610  -0.57941
 Alpha  occ. eigenvalues --   -0.57611  -0.56567  -0.56433  -0.55896  -0.55832
 Alpha  occ. eigenvalues --   -0.55315  -0.55228  -0.54923  -0.54448  -0.53923
 Alpha  occ. eigenvalues --   -0.53426  -0.53057  -0.51440  -0.50818  -0.50548
 Alpha  occ. eigenvalues --   -0.49915  -0.49852  -0.49653  -0.49107  -0.48019
 Alpha  occ. eigenvalues --   -0.47143  -0.46200  -0.43659  -0.41127  -0.39299
 Alpha  occ. eigenvalues --   -0.38874  -0.38397  -0.37352  -0.34488  -0.28489
 Alpha virt. eigenvalues --   -0.05091   0.00643   0.02891   0.03500   0.03748
 Alpha virt. eigenvalues --    0.04052   0.04378   0.04445   0.05066   0.05438
 Alpha virt. eigenvalues --    0.05869   0.06281   0.06459   0.06639   0.06803

 Mulliken charges:
               1
     1  O   -0.395080
     2  C   -0.648584
     3  C   -0.643837
     4  C    0.267564
     5  O   -0.089993
     6  C    0.240972
     7  C   -0.262017
     8  C   -0.250456
     9  N    0.237414
    10  C   -0.321022
    11  C   -0.443748
    12  C   -0.335428
    13  C   -0.187012
    14  C   -0.395274
    15  C    0.171657
    16  N    0.123966
    17  C    0.071294
    18  C    0.056298
    19  C    0.223907
    20  C    0.253702
    21  C    0.865254
    22  F   -0.081309
    23  F   -0.066741
    24  F   -0.163746
    25  C   -0.633121
    26  C   -0.519490
    27  C   -0.037402
    28  C   -0.428424
    29  H    0.231172
    30  H    0.274750
    31  H    0.209420
    32  H    0.181751
    33  H    0.164427
    34  H    0.168289
    35  H    0.144841
    36  H    0.211800
    37  H    0.186004
    38  H    0.238834
    39  H    0.250638
    40  H    0.193982
    41  H    0.239141
    42  H    0.220979
    43  H    0.161353
    44  H    0.165454
    45  H    0.147824
 Sum of Mulliken charges =   0.00000

 Dipole moment (field-independent basis, Debye):
    X=             20.1706    Y=             14.0536    Z=              2.7489  Tot=             24.7368
 Quadrupole moment (field-independent basis, Debye-Ang):
   XX=           -280.9666   YY=           -224.2596   ZZ=           -168.4836
   XY=           -106.4565   XZ=            -21.3394   YZ=             -9.0766

 Normal termination of Gaussian 09 at Wed Jan 15 17:49:10 2020.
