 Gaussian 09, Revision D.01,
 Gaussian 09:  ES64L-G09RevD.01 24-Apr-2013

 ----------------------------------------------------------------------
 #p CAM-B3LYP/6-311++G** nosym density=current geom=allcheck EmpiricalD
 ispersion=GD3 SCRF=(CPCM, solvent=water) IOP(10/74=10) TD=(NSTATES=10,
 ROOT=1,NONEQ) iop(3/119=0810000000) iop(3/120=0810000000)
 ----------------------------------------------------------------------

 Structure from the checkpoint file:  "checkpointCPCMES_wat.chk"
 ---
 Nil
 ---
 Charge =  0 Multiplicity = 1

                          Input orientation:
 ---------------------------------------------------------------------
 Center     Atomic      Atomic             Coordinates (Angstroms)
 Number     Number       Type             X           Y           Z
 ---------------------------------------------------------------------
      1          6           0        2.763179   -1.610536   -0.206763
      2          6           0        1.431538   -1.943291   -0.237274
      3          6           0        0.423828   -0.962064   -0.114724
      4          6           0        0.854362    0.375933    0.038799
      5          6           0        2.180870    0.740934    0.072551
      6          6           0        3.188555   -0.251331   -0.047336
      7          6           0       -1.410298    1.053798    0.120012
      8          6           0       -1.789580   -0.338422   -0.029240
      9          6           0       -3.219747   -0.644230   -0.052521
     10          6           0       -4.164134    0.400397    0.063968
     11          6           0       -3.728928    1.817608    0.211019
     12          6           0       -2.309094    2.069803    0.231885
     13          1           0        3.494001   -2.400865   -0.286794
     14          1           0        1.126332   -2.977115   -0.349542
     15          1           0        2.414782    1.790006    0.172699
     16          1           0       -1.966892    3.091372    0.340346
     17          8           0       -0.083708    1.366102    0.150892
     18          7           0       -0.895605   -1.291350   -0.142050
     19          7           0        4.508863    0.074779   -0.008687
     20          6           0        4.963429    1.442316    0.270807
     21          1           0        4.305491    1.898738    1.012526
     22          1           0        5.943409    1.364158    0.745790
     23          6           0        5.568129   -0.913981   -0.248587
     24          1           0        5.245950   -1.614058   -1.020830
     25          1           0        6.418340   -0.374024   -0.670081
     26          6           0        5.995574   -1.654448    1.021202
     27          1           0        5.163321   -2.218050    1.448786
     28          1           0        6.804333   -2.353565    0.793296
     29          1           0        6.354206   -0.950617    1.776450
     30          6           0        5.059599    2.309793   -0.986865
     31          1           0        5.753579    1.868582   -1.706716
     32          1           0        4.086279    2.413431   -1.471521
     33          1           0        5.423421    3.307333   -0.727507
     34          8           0       -4.557921    2.738655    0.311816
     35          6           0       -3.674908   -1.967602   -0.189954
     36          6           0       -5.533779    0.100363    0.041118
     37          6           0       -5.969364   -1.209115   -0.094357
     38          1           0       -5.369854   -3.270723   -0.316495
     39          6           0       -5.032700   -2.245927   -0.210258
     40          1           0       -7.030123   -1.431107   -0.110837
     41          1           0       -2.948687   -2.765043   -0.279253
     42          1           0       -6.240347    0.915934    0.131751
 ---------------------------------------------------------------------

 SCF Done:  E(RCAM-B3LYP) =  -1031.90635420     A.U. after   18 cycles

 Excitation energies and oscillator strengths:

 Excited state symmetry could not be determined.
 Excited State   1:      Singlet-?Sym    2.7551 eV  450.02 nm  f=1.1549  <S**2>=0.000
      83 -> 85        -0.10579
      84 -> 85         0.68000
 This state for optimization and/or second-order correction.
 Total Energy, E(TD-HF/TD-KS) =  -1031.80510647
 Copying the excited state density for this state as the 1-particle RhoCI density.

 Excited state symmetry could not be determined.
 Excited State   2:      Singlet-?Sym    3.9650 eV  312.70 nm  f=0.0158  <S**2>=0.000
      82 -> 85         0.24619
      83 -> 85         0.60059
      84 -> 86         0.14488
      84 -> 92        -0.10710

 Excited state symmetry could not be determined.
 Excited State   3:      Singlet-?Sym    4.0388 eV  306.98 nm  f=0.0001  <S**2>=0.000
      78 -> 85        -0.12063
      80 -> 85         0.58705
      80 -> 86        -0.28285
      80 ->115         0.12205

 Excited state symmetry could not be determined.
 Excited State   4:      Singlet-?Sym    4.2310 eV  293.04 nm  f=0.0020  <S**2>=0.000
      78 -> 85         0.65300
      80 -> 86        -0.11945

 Excited state symmetry could not be determined.
 Excited State   5:      Singlet-?Sym    4.6071 eV  269.12 nm  f=0.0630  <S**2>=0.000
      79 -> 85         0.25674
      82 -> 85        -0.11728
      84 -> 86         0.35843
      84 -> 92        -0.23448
      84 -> 94         0.32817
      84 -> 99        -0.18633

 Excited state symmetry could not be determined.
 Excited State   6:      Singlet-?Sym    4.6829 eV  264.76 nm  f=0.0223  <S**2>=0.000
      81 -> 85         0.47317
      81 -> 92        -0.11784
      82 -> 85        -0.27411
      82 -> 86         0.17398
      84 -> 86         0.17580
      84 -> 92         0.20174
      84 -> 94        -0.10544

 Excited state symmetry could not be determined.
 Excited State   7:      Singlet-?Sym    4.8046 eV  258.05 nm  f=0.0248  <S**2>=0.000
      79 -> 85        -0.29911
      81 -> 85         0.16116
      82 -> 85         0.32110
      83 -> 85        -0.29465
      83 -> 86        -0.19202
      84 -> 86         0.28846
      84 -> 92        -0.15782

 Excited state symmetry could not be determined.
 Excited State   8:      Singlet-?Sym    5.0182 eV  247.07 nm  f=0.2166  <S**2>=0.000
      81 -> 85         0.37042
      82 -> 85         0.21198
      84 -> 86        -0.32368
      84 -> 91         0.13039
      84 -> 94         0.29234
      84 -> 97        -0.13369
      84 ->102         0.12331

 Excited state symmetry could not be determined.
 Excited State   9:      Singlet-?Sym    5.3350 eV  232.40 nm  f=0.0028  <S**2>=0.000
      84 -> 87         0.52211
      84 -> 90         0.24882
      84 -> 98         0.26965
      84 ->103         0.11152

 Excited state symmetry could not be determined.
 Excited State  10:      Singlet-?Sym    5.3681 eV  230.96 nm  f=0.0025  <S**2>=0.000
      81 -> 85        -0.20039
      82 -> 85         0.27853
      82 -> 86         0.26145
      83 -> 92        -0.11671
      84 -> 86         0.15533
      84 -> 92         0.41044
      84 -> 99         0.10705

 Alpha  occ. eigenvalues --  -19.34715 -19.23976 -14.48731 -14.47856 -10.41839
 Alpha  occ. eigenvalues --  -10.40592 -10.40282 -10.38265 -10.38016 -10.35098
 Alpha  occ. eigenvalues --  -10.34257 -10.34105 -10.34099 -10.33185 -10.33008
 Alpha  occ. eigenvalues --  -10.32317 -10.32168 -10.32156 -10.32036 -10.31592
 Alpha  occ. eigenvalues --  -10.31576 -10.31327 -10.29383 -10.29372  -1.28793
 Alpha  occ. eigenvalues --   -1.18377  -1.12462  -1.12069  -1.04471  -1.02021
 Alpha  occ. eigenvalues --   -0.98246  -0.93984  -0.92874  -0.92441  -0.91162
 Alpha  occ. eigenvalues --   -0.89989  -0.87183  -0.83148  -0.81914  -0.79572
 Alpha  occ. eigenvalues --   -0.78504  -0.77174  -0.76102  -0.73740  -0.71381
 Alpha  occ. eigenvalues --   -0.69532  -0.68252  -0.66228  -0.65243  -0.63574
 Alpha  occ. eigenvalues --   -0.62897  -0.62156  -0.60403  -0.59711  -0.58877
 Alpha  occ. eigenvalues --   -0.57998  -0.56697  -0.56429  -0.56339  -0.55827
 Alpha  occ. eigenvalues --   -0.55679  -0.55127  -0.54795  -0.53765  -0.53184
 Alpha  occ. eigenvalues --   -0.52835  -0.51377  -0.50608  -0.50196  -0.49746
 Alpha  occ. eigenvalues --   -0.48960  -0.48837  -0.47892  -0.47357  -0.47103
 Alpha  occ. eigenvalues --   -0.46087  -0.43391  -0.40859  -0.38766  -0.38611
 Alpha  occ. eigenvalues --   -0.37029  -0.36554  -0.34286  -0.28320
 Alpha virt. eigenvalues --   -0.04701   0.02171   0.02882   0.03427   0.03732
 Alpha virt. eigenvalues --    0.04333   0.04390   0.04708   0.04844   0.05570
 Alpha virt. eigenvalues --    0.05759   0.05936   0.06531   0.06674   0.07059

 Mulliken charges:
               1
     1  C   -0.240366
     2  C   -0.406408
     3  C    0.097574
     4  C    0.192276
     5  C   -0.245792
     6  C   -0.200944
     7  C    0.486740
     8  C    0.149859
     9  C    0.474888
    10  C    0.205711
    11  C   -0.562330
    12  C   -0.502932
    13  H    0.236137
    14  H    0.251698
    15  H    0.273381
    16  H    0.226960
    17  O   -0.090572
    18  N    0.091521
    19  N    0.233738
    20  C   -0.328530
    21  H    0.183659
    22  H    0.210864
    23  C   -0.322958
    24  H    0.181242
    25  H    0.209243
    26  C   -0.445822
    27  H    0.144223
    28  H    0.164686
    29  H    0.168908
    30  C   -0.430151
    31  H    0.165372
    32  H    0.147049
    33  H    0.161295
    34  O   -0.448956
    35  C   -0.346405
    36  C   -0.085929
    37  C   -0.419893
    38  H    0.227221
    39  C   -0.427256
    40  H    0.214150
    41  H    0.199298
    42  H    0.207551
 Sum of Mulliken charges =   0.00000

 Dipole moment (field-independent basis, Debye):
    X=             19.8398    Y=             -5.4924    Z=             -0.6668  Tot=             20.5969
 Quadrupole moment (field-independent basis, Debye-Ang):
   XX=           -112.5349   YY=           -146.5690   ZZ=           -146.5718
   XY=             28.5717   XZ=              2.8570   YZ=             -0.1110

 Normal termination of Gaussian 09 at Mon Feb 17 10:18:37 2020.
