 Gaussian 09, Revision D.01,
 Gaussian 09:  ES64L-G09RevD.01 24-Apr-2013

 ----------------------------------------------------------------------
 #p CAM-B3LYP/6-311++G** geom=allcheck nosym TD=(NSTATES=10,ROOT=1) den
 sity=current iop(3/119=0810000000) iop(3/120=0810000000)
 ----------------------------------------------------------------------

 Structure from the checkpoint file:  "checkpointES.chk"
 ---
 Nil
 ---
 Charge =  0 Multiplicity = 1

                          Input orientation:
 ---------------------------------------------------------------------
 Center     Atomic      Atomic             Coordinates (Angstroms)
 Number     Number       Type             X           Y           Z
 ---------------------------------------------------------------------
      1          6           0        2.756849   -1.608301   -0.191564
      2          6           0        1.418727   -1.937559   -0.220842
      3          6           0        0.417344   -0.958169   -0.103809
      4          6           0        0.846182    0.373952    0.042589
      5          6           0        2.179620    0.734302    0.072269
      6          6           0        3.182373   -0.256111   -0.042533
      7          6           0       -1.417529    1.062887    0.118281
      8          6           0       -1.797597   -0.339192   -0.026003
      9          6           0       -3.232348   -0.645588   -0.051024
     10          6           0       -4.176493    0.395461    0.057512
     11          6           0       -3.745515    1.819524    0.200496
     12          6           0       -2.313154    2.072854    0.223161
     13          1           0        3.484882   -2.402456   -0.265497
     14          1           0        1.107116   -2.970005   -0.327990
     15          1           0        2.413705    1.784443    0.165209
     16          1           0       -1.982249    3.098436    0.328333
     17          8           0       -0.083495    1.370601    0.150706
     18          7           0       -0.913392   -1.291048   -0.131592
     19          7           0        4.516664    0.074098   -0.008876
     20          6           0        4.966904    1.438792    0.268823
     21          1           0        4.302590    1.893141    1.007401
     22          1           0        5.944303    1.365710    0.753535
     23          6           0        5.567370   -0.915802   -0.252085
     24          1           0        5.232131   -1.618267   -1.018136
     25          1           0        6.416895   -0.384257   -0.689538
     26          6           0        6.023226   -1.665432    1.005200
     27          1           0        5.201492   -2.226850    1.454802
     28          1           0        6.823249   -2.368796    0.756477
     29          1           0        6.406764   -0.971777    1.758039
     30          6           0        5.076772    2.326032   -0.976565
     31          1           0        5.779974    1.902184   -1.698391
     32          1           0        4.111447    2.437509   -1.474697
     33          1           0        5.436165    3.321591   -0.700652
     34          8           0       -4.565018    2.731041    0.294227
     35          6           0       -3.680660   -1.969852   -0.183225
     36          6           0       -5.543950    0.097778    0.032183
     37          6           0       -5.975282   -1.213991   -0.098388
     38          1           0       -5.374398   -3.275234   -0.308301
     39          6           0       -5.038360   -2.249283   -0.206136
     40          1           0       -7.035992   -1.437918   -0.117191
     41          1           0       -2.947081   -2.761360   -0.265945
     42          1           0       -6.244529    0.919480    0.117262
 ---------------------------------------------------------------------

 SCF Done:  E(RCAM-B3LYP) =  -1031.86482663     A.U. after   18 cycles

 Excitation energies and oscillator strengths:

 Excited state symmetry could not be determined.
 Excited State   1:      Singlet-?Sym    3.1653 eV  391.70 nm  f=0.9311  <S**2>=0.000
      83 -> 85         0.12289
      84 -> 85         0.67456
 This state for optimization and/or second-order correction.
 Total Energy, E(TD-HF/TD-KS) =  -1031.74850527
 Copying the excited state density for this state as the 1-particle RhoCI density.

 Excited state symmetry could not be determined.
 Excited State   2:      Singlet-?Sym    3.7919 eV  326.97 nm  f=0.0000  <S**2>=0.000
      80 -> 85         0.58779
      80 -> 87        -0.11511
      80 -> 88        -0.23904
      80 -> 89         0.11317

 Excited state symmetry could not be determined.
 Excited State   3:      Singlet-?Sym    4.1507 eV  298.71 nm  f=0.0283  <S**2>=0.000
      81 -> 85        -0.26680
      82 -> 85         0.12212
      83 -> 85         0.57188
      84 -> 88        -0.13167

 Excited state symmetry could not be determined.
 Excited State   4:      Singlet-?Sym    4.2861 eV  289.27 nm  f=0.0016  <S**2>=0.000
      78 -> 85         0.66403

 Excited state symmetry could not be determined.
 Excited State   5:      Singlet-?Sym    4.6624 eV  265.92 nm  f=0.0355  <S**2>=0.000
      79 -> 85         0.25806
      81 -> 85        -0.11914
      84 -> 88         0.24688
      84 -> 89        -0.12102
      84 -> 92        -0.10055
      84 -> 93         0.36607
      84 -> 95        -0.13483
      84 -> 97        -0.19543
      84 -> 99        -0.20214

 Excited state symmetry could not be determined.
 Excited State   6:      Singlet-?Sym    4.7126 eV  263.09 nm  f=0.0232  <S**2>=0.000
      81 -> 85         0.23812
      81 -> 88         0.14410
      82 -> 85         0.52644
      82 -> 95        -0.11523
      84 -> 88         0.13691
      84 -> 93        -0.11712

 Excited state symmetry could not be determined.
 Excited State   7:      Singlet-?Sym    5.0426 eV  245.88 nm  f=0.0391  <S**2>=0.000
      79 -> 85        -0.21797
      81 -> 85         0.35032
      82 -> 85        -0.19427
      83 -> 85         0.34597
      83 -> 88         0.13560
      84 -> 88         0.20955
      84 -> 89        -0.10307
      84 -> 95        -0.12359

 Excited state symmetry could not be determined.
 Excited State   8:      Singlet-?Sym    5.2111 eV  237.92 nm  f=0.1445  <S**2>=0.000
      81 -> 85         0.31912
      83 -> 88        -0.10672
      84 -> 87        -0.24270
      84 -> 88        -0.28253
      84 -> 90         0.12531
      84 -> 93         0.14635
      84 -> 96         0.13153
      84 -> 97        -0.24494
      84 ->102         0.15862

 Excited state symmetry could not be determined.
 Excited State   9:      Singlet-?Sym    5.3198 eV  233.06 nm  f=0.0089  <S**2>=0.000
      84 -> 86         0.47604
      84 -> 88         0.19835
      84 -> 89         0.17028
      84 -> 91         0.23884
      84 -> 96        -0.10625
      84 -> 98        -0.14845
      84 ->103         0.14584

 Excited state symmetry could not be determined.
 Excited State  10:      Singlet-?Sym    5.5519 eV  223.32 nm  f=0.0415  <S**2>=0.000
      81 -> 87        -0.10415
      81 -> 88        -0.23719
      81 -> 89         0.11000
      82 -> 85         0.29543
      84 -> 88        -0.16187
      84 -> 89         0.17074
      84 -> 93         0.19908
      84 -> 95        -0.24630
      84 -> 96        -0.18119
      84 -> 97         0.16623

 Alpha  occ. eigenvalues --  -19.33653 -19.22735 -14.48081 -14.47541 -10.40760
 Alpha  occ. eigenvalues --  -10.39736 -10.39194 -10.38074 -10.37772 -10.35522
 Alpha  occ. eigenvalues --  -10.35454 -10.34619 -10.33299 -10.32804 -10.32212
 Alpha  occ. eigenvalues --  -10.31711 -10.31643 -10.31605 -10.31483 -10.31454
 Alpha  occ. eigenvalues --  -10.31195 -10.30902 -10.30810 -10.30782  -1.27787
 Alpha  occ. eigenvalues --   -1.17509  -1.12448  -1.11564  -1.03805  -1.01576
 Alpha  occ. eigenvalues --   -0.97705  -0.94264  -0.93082  -0.92319  -0.90863
 Alpha  occ. eigenvalues --   -0.89567  -0.87412  -0.82740  -0.81483  -0.80019
 Alpha  occ. eigenvalues --   -0.78710  -0.76871  -0.75897  -0.73447  -0.70719
 Alpha  occ. eigenvalues --   -0.69434  -0.67650  -0.66113  -0.65565  -0.63755
 Alpha  occ. eigenvalues --   -0.62095  -0.61607  -0.60574  -0.59445  -0.58851
 Alpha  occ. eigenvalues --   -0.57889  -0.57343  -0.56789  -0.55913  -0.55624
 Alpha  occ. eigenvalues --   -0.54786  -0.54674  -0.54559  -0.53445  -0.52982
 Alpha  occ. eigenvalues --   -0.52261  -0.52130  -0.51075  -0.50995  -0.49997
 Alpha  occ. eigenvalues --   -0.49023  -0.48399  -0.48213  -0.48051  -0.47148
 Alpha  occ. eigenvalues --   -0.46612  -0.43215  -0.39972  -0.38322  -0.36915
 Alpha  occ. eigenvalues --   -0.36038  -0.35952  -0.33887  -0.28442
 Alpha virt. eigenvalues --   -0.03484   0.01777   0.02878   0.03185   0.03326
 Alpha virt. eigenvalues --    0.03535   0.03843   0.04684   0.04993   0.05408
 Alpha virt. eigenvalues --    0.05691   0.05830   0.05961   0.06122   0.06916

 Mulliken charges:
               1
     1  C   -0.201478
     2  C   -0.416045
     3  C    0.058144
     4  C    0.163175
     5  C   -0.248162
     6  C   -0.168688
     7  C    0.542072
     8  C    0.128657
     9  C    0.511005
    10  C    0.228491
    11  C   -0.685877
    12  C   -0.497168
    13  H    0.183709
    14  H    0.231621
    15  H    0.235165
    16  H    0.219745
    17  O   -0.077125
    18  N    0.150011
    19  N    0.219433
    20  C   -0.329879
    21  H    0.168685
    22  H    0.180988
    23  C   -0.322300
    24  H    0.162730
    25  H    0.181657
    26  C   -0.422921
    27  H    0.145317
    28  H    0.153227
    29  H    0.158058
    30  C   -0.406626
    31  H    0.151195
    32  H    0.152039
    33  H    0.150902
    34  O   -0.303148
    35  C   -0.353684
    36  C   -0.089255
    37  C   -0.349745
    38  H    0.191417
    39  C   -0.379724
    40  H    0.181196
    41  H    0.192289
    42  H    0.210897
 Sum of Mulliken charges =   0.00000

 Dipole moment (field-independent basis, Debye):
    X=             12.6444    Y=             -3.0937    Z=             -0.3661  Tot=             13.0225
 Quadrupole moment (field-independent basis, Debye-Ang):
   XX=           -119.2761   YY=           -144.0548   ZZ=           -146.5736
   XY=             18.7406   XZ=              1.8163   YZ=              0.0330

 Normal termination of Gaussian 09 at Mon Feb 17 11:47:58 2020.
