 Gaussian 09, Revision D.01,
 Gaussian 09:  ES64L-G09RevD.01 24-Apr-2013

 ----------------------------------------------------------------------
 #p CAM-B3LYP/6-311++G** nosym density=current geom=allcheck EmpiricalD
 ispersion=GD3 SCRF=(CPCM, solvent=acetonitrile) IOP(10/74=10) TD=(NSTA
 TES=10,ROOT=1,NONEQ) iop(3/119=0810000000) iop(3/120=0810000000)
 ----------------------------------------------------------------------

 Structure from the checkpoint file:  "checkpointCPCMES.chk"
 ---
 Nil
 ---
 Charge =  0 Multiplicity = 1

                          Input orientation:
 ---------------------------------------------------------------------
 Center     Atomic      Atomic             Coordinates (Angstroms)
 Number     Number       Type             X           Y           Z
 ---------------------------------------------------------------------
      1          6           0        2.763145   -1.610514   -0.206186
      2          6           0        1.431304   -1.943183   -0.236671
      3          6           0        0.423784   -0.962004   -0.114371
      4          6           0        0.854257    0.375817    0.038875
      5          6           0        2.180945    0.740735    0.072513
      6          6           0        3.188511   -0.251478   -0.047146
      7          6           0       -1.410336    1.054036    0.119873
      8          6           0       -1.789686   -0.338528   -0.029170
      9          6           0       -3.220000   -0.644310   -0.052489
     10          6           0       -4.164329    0.400269    0.063713
     11          6           0       -3.729154    1.817659    0.210556
     12          6           0       -2.308982    2.069872    0.231477
     13          1           0        3.493880   -2.400965   -0.285943
     14          1           0        1.125965   -2.976995   -0.348709
     15          1           0        2.414791    1.789858    0.172368
     16          1           0       -1.967065    3.091542    0.339783
     17          8           0       -0.083569    1.366204    0.150778
     18          7           0       -0.896010   -1.291383   -0.141709
     19          7           0        4.509145    0.074769   -0.008636
     20          6           0        4.963561    1.442189    0.271030
     21          1           0        4.305663    1.898401    1.012956
     22          1           0        5.943624    1.364155    0.745942
     23          6           0        5.568203   -0.913905   -0.248928
     24          1           0        5.245755   -1.613905   -1.021178
     25          1           0        6.418395   -0.374050   -0.670689
     26          6           0        5.996158   -1.654731    1.020520
     27          1           0        5.163964   -2.218142    1.448462
     28          1           0        6.804667   -2.354045    0.792253
     29          1           0        6.355278   -0.951113    1.775749
     30          6           0        5.059511    2.310181   -0.986340
     31          1           0        5.753527    1.869367   -1.706416
     32          1           0        4.086165    2.413710   -1.470958
     33          1           0        5.423112    3.307770   -0.726802
     34          8           0       -4.557814    2.738499    0.311106
     35          6           0       -3.675044   -1.967681   -0.189701
     36          6           0       -5.533923    0.100395    0.040810
     37          6           0       -5.969480   -1.209140   -0.094459
     38          1           0       -5.370035   -3.270782   -0.316138
     39          6           0       -5.032867   -2.245968   -0.210069
     40          1           0       -7.030248   -1.431104   -0.110993
     41          1           0       -2.948735   -2.765069   -0.278773
     42          1           0       -6.240329    0.916133    0.131233
 ---------------------------------------------------------------------

 SCF Done:  E(RCAM-B3LYP) =  -1031.90609476     A.U. after   18 cycles

 Excitation energies and oscillator strengths:

 Excited state symmetry could not be determined.
 Excited State   1:      Singlet-?Sym    2.7597 eV  449.27 nm  f=1.1567  <S**2>=0.000
      83 -> 85        -0.10669
      84 -> 85         0.67979
 This state for optimization and/or second-order correction.
 Total Energy, E(TD-HF/TD-KS) =  -1031.80467790
 Copying the excited state density for this state as the 1-particle RhoCI density.

 Excited state symmetry could not be determined.
 Excited State   2:      Singlet-?Sym    3.9687 eV  312.40 nm  f=0.0163  <S**2>=0.000
      82 -> 85         0.24670
      83 -> 85         0.59979
      84 -> 86         0.14521
      84 -> 92        -0.10784

 Excited state symmetry could not be determined.
 Excited State   3:      Singlet-?Sym    4.0322 eV  307.48 nm  f=0.0001  <S**2>=0.000
      78 -> 85        -0.11313
      80 -> 85         0.58791
      80 -> 86        -0.28415
      80 ->115         0.12510

 Excited state symmetry could not be determined.
 Excited State   4:      Singlet-?Sym    4.2323 eV  292.95 nm  f=0.0020  <S**2>=0.000
      78 -> 85         0.65432
      80 -> 86        -0.11615

 Excited state symmetry could not be determined.
 Excited State   5:      Singlet-?Sym    4.6075 eV  269.09 nm  f=0.0631  <S**2>=0.000
      79 -> 85         0.25655
      82 -> 85        -0.11657
      84 -> 86         0.35393
      84 -> 92        -0.24031
      84 -> 94         0.32831
      84 -> 99        -0.18730

 Excited state symmetry could not be determined.
 Excited State   6:      Singlet-?Sym    4.6824 eV  264.78 nm  f=0.0227  <S**2>=0.000
      81 -> 85         0.47483
      81 -> 92        -0.11743
      82 -> 85        -0.27543
      82 -> 86         0.17419
      84 -> 86         0.17620
      84 -> 92         0.19974

 Excited state symmetry could not be determined.
 Excited State   7:      Singlet-?Sym    4.8099 eV  257.77 nm  f=0.0248  <S**2>=0.000
      79 -> 85        -0.29658
      81 -> 85         0.16301
      82 -> 85         0.32201
      83 -> 85        -0.29660
      83 -> 86        -0.19123
      84 -> 86         0.28821
      84 -> 92        -0.15699

 Excited state symmetry could not be determined.
 Excited State   8:      Singlet-?Sym    5.0185 eV  247.05 nm  f=0.2194  <S**2>=0.000
      81 -> 85         0.36773
      82 -> 85         0.21166
      83 -> 86         0.10067
      84 -> 86        -0.32726
      84 -> 91         0.12848
      84 -> 94         0.29212
      84 -> 97        -0.13515
      84 ->102         0.12439

 Excited state symmetry could not be determined.
 Excited State   9:      Singlet-?Sym    5.3349 eV  232.40 nm  f=0.0028  <S**2>=0.000
      84 -> 87         0.52140
      84 -> 90         0.25052
      84 -> 98         0.27029
      84 ->103         0.11366

 Excited state symmetry could not be determined.
 Excited State  10:      Singlet-?Sym    5.3719 eV  230.80 nm  f=0.0027  <S**2>=0.000
      81 -> 85        -0.20007
      82 -> 85         0.27628
      82 -> 86         0.26408
      83 -> 92        -0.11632
      84 -> 86         0.15593
      84 -> 92         0.40961
      84 -> 99         0.10817

 Alpha  occ. eigenvalues --  -19.34689 -19.23954 -14.48702 -14.47855 -10.41814
 Alpha  occ. eigenvalues --  -10.40565 -10.40268 -10.38258 -10.38017 -10.35085
 Alpha  occ. eigenvalues --  -10.34235 -10.34136 -10.34127 -10.33164 -10.33004
 Alpha  occ. eigenvalues --  -10.32303 -10.32146 -10.32140 -10.32021 -10.31591
 Alpha  occ. eigenvalues --  -10.31578 -10.31315 -10.29414 -10.29406  -1.28769
 Alpha  occ. eigenvalues --   -1.18364  -1.12449  -1.12069  -1.04455  -1.02011
 Alpha  occ. eigenvalues --   -0.98234  -0.93978  -0.92874  -0.92449  -0.91159
 Alpha  occ. eigenvalues --   -0.89981  -0.87186  -0.83140  -0.81901  -0.79575
 Alpha  occ. eigenvalues --   -0.78513  -0.77169  -0.76098  -0.73734  -0.71365
 Alpha  occ. eigenvalues --   -0.69528  -0.68237  -0.66224  -0.65253  -0.63576
 Alpha  occ. eigenvalues --   -0.62878  -0.62144  -0.60405  -0.59694  -0.58885
 Alpha  occ. eigenvalues --   -0.57993  -0.56699  -0.56430  -0.56336  -0.55813
 Alpha  occ. eigenvalues --   -0.55664  -0.55131  -0.54793  -0.53757  -0.53179
 Alpha  occ. eigenvalues --   -0.52820  -0.51403  -0.50613  -0.50194  -0.49775
 Alpha  occ. eigenvalues --   -0.48950  -0.48826  -0.47909  -0.47342  -0.47131
 Alpha  occ. eigenvalues --   -0.46113  -0.43387  -0.40840  -0.38757  -0.38575
 Alpha  occ. eigenvalues --   -0.37005  -0.36542  -0.34277  -0.28325
 Alpha virt. eigenvalues --   -0.04672   0.02195   0.02871   0.03424   0.03727
 Alpha virt. eigenvalues --    0.04324   0.04378   0.04726   0.04838   0.05566
 Alpha virt. eigenvalues --    0.05754   0.05934   0.06519   0.06665   0.07058

 Mulliken charges:
               1
     1  C   -0.239983
     2  C   -0.407055
     3  C    0.097367
     4  C    0.191794
     5  C   -0.246107
     6  C   -0.199613
     7  C    0.488074
     8  C    0.149550
     9  C    0.475505
    10  C    0.206573
    11  C   -0.565323
    12  C   -0.502930
    13  H    0.235112
    14  H    0.251385
    15  H    0.272680
    16  H    0.226960
    17  O   -0.090406
    18  N    0.092225
    19  N    0.232790
    20  C   -0.328505
    21  H    0.183442
    22  H    0.210242
    23  C   -0.322857
    24  H    0.180888
    25  H    0.208693
    26  C   -0.445431
    27  H    0.144226
    28  H    0.164497
    29  H    0.168706
    30  C   -0.429757
    31  H    0.165066
    32  H    0.147172
    33  H    0.161141
    34  O   -0.445564
    35  C   -0.346479
    36  C   -0.085763
    37  C   -0.418756
    38  H    0.226506
    39  C   -0.426468
    40  H    0.213546
    41  H    0.199090
    42  H    0.207764
 Sum of Mulliken charges =   0.00000

 Dipole moment (field-independent basis, Debye):
    X=             19.6707    Y=             -5.4287    Z=             -0.6580  Tot=             20.4167
 Quadrupole moment (field-independent basis, Debye-Ang):
   XX=           -112.6514   YY=           -146.5038   ZZ=           -146.5722
   XY=             28.3245   XZ=              2.8274   YZ=             -0.1050

 Normal termination of Gaussian 09 at Mon Feb 17 10:18:34 2020.
