 Gaussian 09, Revision D.01,
 Gaussian 09:  ES64L-G09RevD.01 24-Apr-2013

 ----------------------------------------------------------------------
 #p CAM-B3LYP/6-311++G** nosym density=current geom=allcheck EmpiricalD
 ispersion=GD3 SCRF=(CPCM, solvent=acetonitrile) IOP(10/74=10) TD=(NSTA
 TES=10,ROOT=1,NONEQ) iop(3/119=0810000000) iop(3/120=0810000000)
 ----------------------------------------------------------------------

 Structure from the checkpoint file:  "checkpointCPCMES.chk"
 --------
 NRA_NRA1
 --------
 Charge =  0 Multiplicity = 1

                          Input orientation:
 ---------------------------------------------------------------------
 Center     Atomic      Atomic             Coordinates (Angstroms)
 Number     Number       Type             X           Y           Z
 ---------------------------------------------------------------------
      1          8           0       -6.856187   -5.176076   -0.877474
      2          6           0       -6.381059   -4.046980   -0.704185
      3          6           0       -4.951806   -3.848367   -0.728360
      4          6           0       -4.387800   -2.644989   -0.455405
      5          8           0       -3.029207   -2.539492   -0.484089
      6          6           0       -2.436025   -1.342537   -0.187109
      7          6           0       -1.062830   -1.277973   -0.224513
      8          6           0       -0.405429   -0.058280    0.086064
      9          7           0        0.949536    0.041881    0.044932
     10          6           0        1.661593    1.251867    0.477386
     11          6           0        1.832922    2.277830   -0.645286
     12          6           0        1.796030   -1.054198   -0.443357
     13          6           0       -1.223625    1.064678    0.439870
     14          6           0       -2.592200    0.969563    0.467289
     15          6           0       -3.253382   -0.238025    0.151860
     16          7           0       -4.608582   -0.329137    0.169217
     17          6           0       -5.169804   -1.477708   -0.126666
     18          6           0       -6.629212   -1.610636   -0.136073
     19          6           0       -7.247755   -2.847553   -0.451301
     20          6           0       -8.669697   -2.889860   -0.487042
     21          6           0       -9.475703   -4.124322   -0.860474
     22          9           0       -9.161796   -4.621184   -2.077967
     23          9           0       -9.383303   -5.124293    0.045456
     24          9           0      -10.808952   -3.840530   -0.932706
     25          6           0       -9.410912   -1.751835   -0.187871
     26          6           0       -8.782222   -0.549868    0.146030
     27          6           0       -7.406425   -0.477943    0.163884
     28          6           0        2.186744   -2.044660    0.656478
     29          1           0       -4.332525   -4.709094   -0.946254
     30          1           0       -0.519425   -2.176915   -0.473122
     31          1           0        2.639052    0.931920    0.843892
     32          1           0        1.148810    1.690151    1.334699
     33          1           0        2.390798    3.143698   -0.279647
     34          1           0        2.383998    1.844885   -1.483844
     35          1           0        0.864786    2.622335   -1.015291
     36          1           0        2.691178   -0.600047   -0.873143
     37          1           0        1.291547   -1.562177   -1.267139
     38          1           0       -0.767995    2.015693    0.670411
     39          1           0       -3.197928    1.830421    0.725014
     40          1           0      -10.489914   -1.788240   -0.216829
     41          1           0       -9.381006    0.322067    0.379212
     42          1           0       -6.902097    0.447758    0.405640
     43          1           0        2.828759   -2.827455    0.244485
     44          1           0        2.734270   -1.538710    1.455600
     45          1           0        1.304879   -2.517665    1.094126
 ---------------------------------------------------------------------

 SCF Done:  E(RCAM-B3LYP) =  -1368.81301753     A.U. after   19 cycles

 Excitation energies and oscillator strengths:

 Excited state symmetry could not be determined.
 Excited State   1:      Singlet-?Sym    2.7137 eV  456.88 nm  f=1.1753  <S**2>=0.000
      99 ->101         0.10360
     100 ->101         0.67930
 This state for optimization and/or second-order correction.
 Total Energy, E(TD-HF/TD-KS) =  -1368.71329074
 Copying the excited state density for this state as the 1-particle RhoCI density.

 Excited state symmetry could not be determined.
 Excited State   2:      Singlet-?Sym    3.9624 eV  312.90 nm  f=0.0061  <S**2>=0.000
      96 ->101         0.46758
      96 ->102        -0.22143
      96 ->130        -0.11888
      97 ->101         0.10251
      98 ->101        -0.12970
      99 ->101         0.35230

 Excited state symmetry could not be determined.
 Excited State   3:      Singlet-?Sym    3.9858 eV  311.07 nm  f=0.0128  <S**2>=0.000
      96 ->101        -0.34643
      96 ->102         0.16595
      98 ->101        -0.19445
      99 ->101         0.49122
     100 ->102        -0.10711

 Excited state symmetry could not be determined.
 Excited State   4:      Singlet-?Sym    4.2115 eV  294.39 nm  f=0.0021  <S**2>=0.000
      94 ->101         0.65697
      94 ->102         0.11745

 Excited state symmetry could not be determined.
 Excited State   5:      Singlet-?Sym    4.5524 eV  272.35 nm  f=0.0832  <S**2>=0.000
      95 ->101         0.17044
      98 ->102         0.20202
      99 ->101         0.13835
     100 ->102         0.52137
     100 ->106         0.12963
     100 ->110        -0.23451
     100 ->115         0.12734

 Excited state symmetry could not be determined.
 Excited State   6:      Singlet-?Sym    4.7062 eV  263.45 nm  f=0.0011  <S**2>=0.000
      95 ->101        -0.14727
      97 ->101        -0.30987
      98 ->102         0.12285
      99 ->102         0.11540
     100 ->102         0.23160
     100 ->106        -0.22738
     100 ->110         0.35798
     100 ->115        -0.11729

 Excited state symmetry could not be determined.
 Excited State   7:      Singlet-?Sym    4.7998 eV  258.31 nm  f=0.0261  <S**2>=0.000
      95 ->101         0.34669
      97 ->102        -0.15591
      98 ->101        -0.29521
      98 ->102         0.12617
      99 ->101        -0.25569
      99 ->102        -0.18276
     100 ->106        -0.29222

 Excited state symmetry could not be determined.
 Excited State   8:      Singlet-?Sym    5.1034 eV  242.95 nm  f=0.1441  <S**2>=0.000
      95 ->102         0.11024
      97 ->101         0.45222
      98 ->101        -0.24556
     100 ->102         0.16552
     100 ->110         0.21751
     100 ->112        -0.15269
     100 ->117        -0.10143

 Excited state symmetry could not be determined.
 Excited State   9:      Singlet-?Sym    5.2969 eV  234.07 nm  f=0.0230  <S**2>=0.000
      95 ->101         0.13070
      97 ->101        -0.31823
      98 ->101        -0.27187
      98 ->102        -0.11237
      99 ->106         0.11252
     100 ->102        -0.15656
     100 ->105        -0.13777
     100 ->106         0.38098
     100 ->112        -0.15908

 Excited state symmetry could not be determined.
 Excited State  10:      Singlet-?Sym    5.3716 eV  230.81 nm  f=0.0027  <S**2>=0.000
     100 ->103         0.51882
     100 ->107         0.22064
     100 ->108        -0.12517
     100 ->114         0.27618

 Alpha  occ. eigenvalues --  -24.85374 -24.85207 -24.85149 -19.34868 -19.24172
 Alpha  occ. eigenvalues --  -14.49059 -14.48073 -10.57985 -10.41856 -10.41251
 Alpha  occ. eigenvalues --  -10.40489 -10.38478 -10.38235 -10.36171 -10.35638
 Alpha  occ. eigenvalues --  -10.35425 -10.35289 -10.34221 -10.34216 -10.33716
 Alpha  occ. eigenvalues --  -10.33210 -10.33179 -10.33133 -10.31737 -10.31711
 Alpha  occ. eigenvalues --  -10.31495 -10.29475 -10.29458  -1.47526  -1.38274
 Alpha  occ. eigenvalues --   -1.37926  -1.28965  -1.19111  -1.12804  -1.12290
 Alpha  occ. eigenvalues --   -1.05576  -1.02927  -0.98828  -0.95846  -0.94177
 Alpha  occ. eigenvalues --   -0.92854  -0.92321  -0.90573  -0.88105  -0.85814
 Alpha  occ. eigenvalues --   -0.83567  -0.82201  -0.80144  -0.79155  -0.77996
 Alpha  occ. eigenvalues --   -0.77339  -0.75271  -0.73798  -0.73607  -0.72499
 Alpha  occ. eigenvalues --   -0.71012  -0.69275  -0.67078  -0.66582  -0.65476
 Alpha  occ. eigenvalues --   -0.63679  -0.63117  -0.62115  -0.61949  -0.61757
 Alpha  occ. eigenvalues --   -0.60962  -0.59749  -0.59124  -0.58614  -0.57904
 Alpha  occ. eigenvalues --   -0.57589  -0.56580  -0.56452  -0.55872  -0.55819
 Alpha  occ. eigenvalues --   -0.55324  -0.55222  -0.54882  -0.54427  -0.53920
 Alpha  occ. eigenvalues --   -0.53428  -0.53051  -0.51472  -0.50823  -0.50551
 Alpha  occ. eigenvalues --   -0.49912  -0.49885  -0.49659  -0.49095  -0.48047
 Alpha  occ. eigenvalues --   -0.47178  -0.46232  -0.43663  -0.41120  -0.39292
 Alpha  occ. eigenvalues --   -0.38848  -0.38388  -0.37351  -0.34487  -0.28502
 Alpha virt. eigenvalues --   -0.05072   0.00660   0.02871   0.03487   0.03737
 Alpha virt. eigenvalues --    0.04064   0.04364   0.04425   0.05056   0.05424
 Alpha virt. eigenvalues --    0.05861   0.06275   0.06456   0.06625   0.06786

 Mulliken charges:
               1
     1  O   -0.391594
     2  C   -0.651450
     3  C   -0.643661
     4  C    0.269025
     5  O   -0.089835
     6  C    0.240477
     7  C   -0.262228
     8  C   -0.249319
     9  N    0.236462
    10  C   -0.320954
    11  C   -0.443357
    12  C   -0.335402
    13  C   -0.186819
    14  C   -0.395841
    15  C    0.171948
    16  N    0.124352
    17  C    0.071020
    18  C    0.056476
    19  C    0.224132
    20  C    0.254059
    21  C    0.865683
    22  F   -0.080621
    23  F   -0.066093
    24  F   -0.163759
    25  C   -0.633536
    26  C   -0.518979
    27  C   -0.037076
    28  C   -0.428044
    29  H    0.231223
    30  H    0.274087
    31  H    0.208928
    32  H    0.181377
    33  H    0.164266
    34  H    0.168110
    35  H    0.144828
    36  H    0.211227
    37  H    0.185766
    38  H    0.237841
    39  H    0.250305
    40  H    0.193542
    41  H    0.238393
    42  H    0.220704
    43  H    0.161232
    44  H    0.165176
    45  H    0.147929
 Sum of Mulliken charges =   0.00000

 Dipole moment (field-independent basis, Debye):
    X=             20.0324    Y=             13.9269    Z=              2.7202  Tot=             24.5491
 Quadrupole moment (field-independent basis, Debye-Ang):
   XX=           -280.2246   YY=           -223.6878   ZZ=           -168.4654
   XY=           -105.6312   XZ=            -21.1485   YZ=             -8.9763

 Normal termination of Gaussian 09 at Mon Feb 17 13:51:13 2020.
 Normal termination of Gaussian 09 at Mon Feb 17 13:49:15 2020.
