 Gaussian 09, Revision D.01,
 Gaussian 09:  ES64L-G09RevD.01 24-Apr-2013

 ----------------------------------------------------------------------
 #p CAM-B3LYP/6-311++G** nosym density=current geom=allcheck EmpiricalD
 ispersion=GD3 SCRF=(CPCM, solvent=water) IOP(10/74=10) TD=(NSTATES=10,
 ROOT=1,NONEQ) iop(3/119=0810000000) iop(3/120=0810000000)
 ----------------------------------------------------------------------

 Structure from the checkpoint file:  "checkpointCPCMES_wat.chk"
 ---
 R6G
 ---
 Charge =  1 Multiplicity = 1

                          Input orientation:
 ---------------------------------------------------------------------
 Center     Atomic      Atomic             Coordinates (Angstroms)
 Number     Number       Type             X           Y           Z
 ---------------------------------------------------------------------
      1          6           0        1.482131  -12.471956   -0.370660
      2          6           0        0.040617  -12.461404   -0.492069
      3          6           0       -0.639741  -11.232661   -0.609990
      4          6           0        2.152105  -11.279600   -0.380873
      5          6           0        1.491257  -10.023911   -0.503312
      6          6           0        0.076381  -10.054428   -0.610572
      7          8           0       -0.637831   -8.902545   -0.715278
      8          6           0        2.148016   -8.781901   -0.495969
      9          6           0        3.637669   -8.719263   -0.448071
     10          6           0        4.368383   -8.545082    0.742852
     11          6           0        5.767289   -8.481577    0.687317
     12          6           0        6.437102   -8.589960   -0.525885
     13          6           0        5.712397   -8.762955   -1.703428
     14          6           0        4.321742   -8.826832   -1.661672
     15          6           0        1.395645   -7.602560   -0.625072
     16          6           0       -0.016847   -7.692907   -0.725418
     17          6           0       -0.823911   -6.580767   -0.829555
     18          6           0       -0.245267   -5.295695   -0.842564
     19          6           0        1.191987   -5.162147   -0.741993
     20          6           0        1.954648   -6.293114   -0.639694
     21          6           0        1.823131   -3.795287   -0.753967
     22          7           0       -1.002803   -4.184078   -0.962846
     23          6           0       -2.464531   -4.144715   -0.993589
     24          6           0       -3.099724   -4.298950    0.391315
     25          7           0       -0.634070  -13.629146   -0.488111
     26          6           0       -2.085226  -13.762902   -0.606815
     27          6           0       -2.491605  -15.230175   -0.550217
     28          6           0        2.215889  -13.779406   -0.235159
     29          6           0        3.653132   -8.440937    2.050045
     30          8           0        2.451941   -8.572032    2.183707
     31          8           0        4.481567   -8.187346    3.070516
     32          6           0        3.884837   -8.077854    4.394707
     33          6           0        5.011071   -7.833214    5.375032
     34          1           0       -1.715469  -11.185663   -0.697467
     35          1           0        3.231360  -11.280182   -0.290288
     36          1           0        6.324384   -8.349494    1.604592
     37          1           0        7.518989   -8.541052   -0.551612
     38          1           0        6.224998   -8.848593   -2.654274
     39          1           0        3.756849   -8.958285   -2.576923
     40          1           0       -1.892477   -6.724361   -0.893609
     41          1           0        3.030920   -6.197172   -0.565288
     42          1           0        2.906810   -3.871252   -0.665813
     43          1           0        1.601289   -3.258385   -1.682778
     44          1           0        1.464630   -3.178782    0.077822
     45          1           0       -2.826406   -4.916932   -1.677076
     46          1           0       -2.742335   -3.185016   -1.431177
     47          1           0       -4.188850   -4.265402    0.307161
     48          1           0       -2.820800   -5.249437    0.851303
     49          1           0       -2.778472   -3.490621    1.052445
     50          1           0       -0.107448  -14.484877   -0.404443
     51          1           0       -2.413381  -13.314675   -1.551129
     52          1           0       -2.566564  -13.206122    0.204507
     53          1           0       -3.575735  -15.316694   -0.640463
     54          1           0       -2.036484  -15.795859   -1.367581
     55          1           0       -2.191980  -15.684317    0.397997
     56          1           0        1.895730  -14.328244    0.657162
     57          1           0        2.045079  -14.428044   -1.101223
     58          1           0        3.289743  -13.611726   -0.153755
     59          1           0        3.346622   -9.003787    4.606990
     60          1           0        3.165164   -7.256783    4.379260
     61          1           0        4.600534   -7.745558    6.383850
     62          1           0        5.723579   -8.660912    5.363400
     63          1           0        5.541595   -6.908542    5.137360
     64          1           0       -0.535636   -3.292662   -0.911441
 ---------------------------------------------------------------------

 SCF Done:  E(RCAM-B3LYP) =  -1419.32464931     A.U. after   20 cycles

 Excitation energies and oscillator strengths:

 Excited state symmetry could not be determined.
 Excited State   1:      Singlet-?Sym    3.0135 eV  411.43 nm  f=1.1315  <S**2>=0.000
     118 ->119         0.68626
 This state for optimization and/or second-order correction.
 Total Energy, E(TD-HF/TD-KS) =  -1419.21390557
 Copying the excited state density for this state as the 1-particle RhoCI density.

 Excited state symmetry could not be determined.
 Excited State   2:      Singlet-?Sym    3.9749 eV  311.92 nm  f=0.0010  <S**2>=0.000
     116 ->119        -0.21597
     117 ->119         0.63528
     118 ->124        -0.10196

 Excited state symmetry could not be determined.
 Excited State   3:      Singlet-?Sym    4.7691 eV  259.97 nm  f=0.4481  <S**2>=0.000
     113 ->119         0.14728
     115 ->119         0.10654
     116 ->119         0.57136
     117 ->119         0.20996
     118 ->131        -0.11039

 Excited state symmetry could not be determined.
 Excited State   4:      Singlet-?Sym    4.7911 eV  258.78 nm  f=0.0493  <S**2>=0.000
     113 ->119         0.51243
     114 ->119         0.10838
     115 ->119         0.22514
     116 ->119        -0.16792
     117 ->127        -0.10995
     117 ->130         0.10590
     118 ->134         0.14154

 Excited state symmetry could not be determined.
 Excited State   5:      Singlet-?Sym    5.1068 eV  242.78 nm  f=0.0623  <S**2>=0.000
     113 ->119        -0.11290
     114 ->119        -0.35888
     115 ->119         0.43954
     115 ->120        -0.16273
     118 ->120        -0.13597
     118 ->124        -0.14389
     118 ->127        -0.10452

 Excited state symmetry could not be determined.
 Excited State   6:      Singlet-?Sym    5.1393 eV  241.25 nm  f=0.3083  <S**2>=0.000
     114 ->119        -0.23242
     115 ->119         0.24751
     115 ->120         0.25329
     117 ->119         0.11665
     118 ->120         0.24605
     118 ->122         0.12445
     118 ->124         0.25322
     118 ->127         0.19953
     118 ->130        -0.14982

 Excited state symmetry could not be determined.
 Excited State   7:      Singlet-?Sym    5.2176 eV  237.63 nm  f=0.0725  <S**2>=0.000
     114 ->122        -0.12036
     114 ->124        -0.17902
     114 ->130        -0.12695
     115 ->120         0.45575
     116 ->119         0.11868
     118 ->122        -0.12484
     118 ->124        -0.23984
     118 ->127        -0.15797
     118 ->130         0.10871

 Excited state symmetry could not be determined.
 Excited State   8:      Singlet-?Sym    5.3635 eV  231.16 nm  f=0.0029  <S**2>=0.000
     112 ->120         0.54777
     112 ->158        -0.17079
     112 ->159         0.13602
     116 ->120         0.27019

 Excited state symmetry could not be determined.
 Excited State   9:      Singlet-?Sym    5.4452 eV  227.69 nm  f=0.0104  <S**2>=0.000
     113 ->119         0.12268
     114 ->119         0.11175
     115 ->120        -0.11139
     118 ->120         0.52740
     118 ->122        -0.10733
     118 ->124        -0.16955
     118 ->125        -0.10740
     118 ->134        -0.13996
     118 ->136        -0.11040

 Excited state symmetry could not be determined.
 Excited State  10:      Singlet-?Sym    5.5234 eV  224.47 nm  f=0.0074  <S**2>=0.000
     113 ->119        -0.18218
     114 ->119        -0.16548
     115 ->119        -0.14133
     117 ->124        -0.10714
     118 ->120         0.32060
     118 ->125         0.14677
     118 ->129         0.15261
     118 ->131        -0.12130
     118 ->134         0.24555
     118 ->136         0.19336
     118 ->138        -0.16393
     118 ->140        -0.10295

 Alpha  occ. eigenvalues --  -19.35649 -19.31372 -19.26286 -14.48806 -14.48778
 Alpha  occ. eigenvalues --  -10.46381 -10.41868 -10.41844 -10.39587 -10.39501
 Alpha  occ. eigenvalues --  -10.39267 -10.36724 -10.35763 -10.35100 -10.34860
 Alpha  occ. eigenvalues --  -10.34809 -10.34429 -10.34415 -10.33970 -10.33968
 Alpha  occ. eigenvalues --  -10.33785 -10.33762 -10.33409 -10.33369 -10.33293
 Alpha  occ. eigenvalues --  -10.32789 -10.32160 -10.32145 -10.30955 -10.30941
 Alpha  occ. eigenvalues --  -10.30109 -10.29849 -10.29646  -1.29626  -1.27675
 Alpha  occ. eigenvalues --   -1.18477  -1.12572  -1.12478  -1.06509  -1.04249
 Alpha  occ. eigenvalues --   -1.03484  -0.99047  -0.97064  -0.95150  -0.93815
 Alpha  occ. eigenvalues --   -0.93579  -0.92767  -0.91718  -0.91021  -0.89479
 Alpha  occ. eigenvalues --   -0.87106  -0.85287  -0.83041  -0.81443  -0.80122
 Alpha  occ. eigenvalues --   -0.79649  -0.79062  -0.77648  -0.76671  -0.75128
 Alpha  occ. eigenvalues --   -0.74550  -0.72758  -0.72477  -0.71367  -0.68604
 Alpha  occ. eigenvalues --   -0.67604  -0.67126  -0.64322  -0.64031  -0.63890
 Alpha  occ. eigenvalues --   -0.63479  -0.62372  -0.62227  -0.61456  -0.61175
 Alpha  occ. eigenvalues --   -0.61069  -0.60335  -0.59771  -0.58974  -0.58386
 Alpha  occ. eigenvalues --   -0.58282  -0.57525  -0.57148  -0.56800  -0.56619
 Alpha  occ. eigenvalues --   -0.56348  -0.55878  -0.54460  -0.53818  -0.53674
 Alpha  occ. eigenvalues --   -0.52093  -0.51938  -0.51835  -0.51771  -0.51554
 Alpha  occ. eigenvalues --   -0.51063  -0.50756  -0.50239  -0.49999  -0.49800
 Alpha  occ. eigenvalues --   -0.49564  -0.49382  -0.49061  -0.48696  -0.48306
 Alpha  occ. eigenvalues --   -0.48081  -0.47417  -0.46652  -0.46387  -0.44069
 Alpha  occ. eigenvalues --   -0.43572  -0.42002  -0.39098  -0.38086  -0.37892
 Alpha  occ. eigenvalues --   -0.36039  -0.34797  -0.30068
 Alpha virt. eigenvalues --   -0.04859   0.00356   0.02346   0.02905   0.03055
 Alpha virt. eigenvalues --    0.03353   0.03518   0.03963   0.04060   0.04378
 Alpha virt. eigenvalues --    0.04441   0.04611   0.04829   0.05285   0.05716

 Mulliken charges:
               1
     1  C   -0.030828
     2  C   -0.359775
     3  C   -0.106286
     4  C   -0.497096
     5  C   -0.098202
     6  C    0.430049
     7  O   -0.048247
     8  C    0.464475
     9  C    0.913414
    10  C    0.228791
    11  C   -0.104754
    12  C   -0.517203
    13  C   -0.385746
    14  C   -0.398033
    15  C   -0.062901
    16  C    0.312154
    17  C   -0.203971
    18  C   -0.091700
    19  C   -0.068638
    20  C   -0.488776
    21  C   -0.603541
    22  N   -0.088790
    23  C   -0.297259
    24  C   -0.430058
    25  N   -0.027405
    26  C   -0.051010
    27  C   -0.702152
    28  C   -0.676326
    29  C   -0.574187
    30  O   -0.185111
    31  O   -0.034213
    32  C    0.007936
    33  C   -0.611229
    34  H    0.265525
    35  H    0.152999
    36  H    0.276711
    37  H    0.220132
    38  H    0.246616
    39  H    0.236031
    40  H    0.258625
    41  H    0.154686
    42  H    0.196535
    43  H    0.197848
    44  H    0.192029
    45  H    0.187675
    46  H    0.212804
    47  H    0.159247
    48  H    0.144461
    49  H    0.169243
    50  H    0.389007
    51  H    0.193519
    52  H    0.190619
    53  H    0.180410
    54  H    0.168229
    55  H    0.169382
    56  H    0.192628
    57  H    0.192111
    58  H    0.195005
    59  H    0.195636
    60  H    0.191385
    61  H    0.172794
    62  H    0.163682
    63  H    0.166247
    64  H    0.354800
 Sum of Mulliken charges =   1.00000

 Dipole moment (field-independent basis, Debye):
    X=              2.5231    Y=            -42.3061    Z=             -2.3088  Tot=             42.4441
 Quadrupole moment (field-independent basis, Debye-Ang):
   XX=           -136.0148   YY=            298.4397   ZZ=           -176.6546
   XY=            -22.9428   XZ=              7.8404   YZ=             19.7463

 Normal termination of Gaussian 09 at Fri Feb 14 12:03:01 2020.
