 Gaussian 09, Revision D.01,
 Gaussian 09:  ES64L-G09RevD.01 24-Apr-2013

 ----------------------------------------------------------------------
 #p CAM-B3LYP/6-311++G** nosym density=current geom=allcheck EmpiricalD
 ispersion=GD3 SCRF=(CPCM, solvent=acetonitrile) IOP(10/74=10) TD=(NSTA
 TES=10,ROOT=1,NONEQ) iop(3/119=0810000000) iop(3/120=0810000000)
 ----------------------------------------------------------------------

 Structure from the checkpoint file:  "checkpointCPCMES.chk"
 ---
 R6G
 ---
 Charge =  1 Multiplicity = 1

                          Input orientation:
 ---------------------------------------------------------------------
 Center     Atomic      Atomic             Coordinates (Angstroms)
 Number     Number       Type             X           Y           Z
 ---------------------------------------------------------------------
      1          6           0        1.484330  -12.467902   -0.367020
      2          6           0        0.042779  -12.458300   -0.487725
      3          6           0       -0.638307  -11.230186   -0.607348
      4          6           0        2.153639  -11.275186   -0.379220
      5          6           0        1.492009  -10.020079   -0.503100
      6          6           0        0.077154  -10.051529   -0.609937
      7          8           0       -0.637732   -8.900244   -0.716263
      8          6           0        2.148044   -8.777667   -0.497430
      9          6           0        3.637666   -8.714003   -0.449582
     10          6           0        4.368315   -8.544476    0.742038
     11          6           0        5.767202   -8.480619    0.686811
     12          6           0        6.437042   -8.583952   -0.526822
     13          6           0        5.712390   -8.752217   -1.705075
     14          6           0        4.321735   -8.816486   -1.663614
     15          6           0        1.394957   -7.598968   -0.628126
     16          6           0       -0.017474   -7.690295   -0.728119
     17          6           0       -0.825198   -6.578729   -0.833546
     18          6           0       -0.247298   -5.293390   -0.848143
     19          6           0        1.189849   -5.158845   -0.747808
     20          6           0        1.953195   -6.289234   -0.644189
     21          6           0        1.820140   -3.791595   -0.761294
     22          7           0       -1.005525   -4.182280   -0.969653
     23          6           0       -2.467297   -4.143762   -0.999898
     24          6           0       -3.102003   -4.296953    0.385345
     25          7           0       -0.631276  -13.626483   -0.481557
     26          6           0       -2.082415  -13.761318   -0.599156
     27          6           0       -2.487883  -15.228754   -0.540061
     28          6           0        2.218827  -13.774785   -0.229973
     29          6           0        3.652675   -8.444598    2.049388
     30          8           0        2.450676   -8.569592    2.181129
     31          8           0        4.481707   -8.202238    3.072090
     32          6           0        3.884226   -8.096875    4.396285
     33          6           0        5.010482   -7.861045    5.378738
     34          1           0       -1.714094  -11.183894   -0.694448
     35          1           0        3.232939  -11.274985   -0.289069
     36          1           0        6.324191   -8.351938    1.604638
     37          1           0        7.518917   -8.534685   -0.552359
     38          1           0        6.225036   -8.833863   -2.656251
     39          1           0        3.756872   -8.944467   -2.579385
     40          1           0       -1.893688   -6.723038   -0.897200
     41          1           0        3.029408   -6.192662   -0.569695
     42          1           0        2.903867   -3.866718   -0.673010
     43          1           0        1.598059   -3.255872   -1.690737
     44          1           0        1.461284   -3.174375    0.069823
     45          1           0       -2.828944   -4.916848   -1.682537
     46          1           0       -2.745841   -3.184691   -1.438432
     47          1           0       -4.191176   -4.264255    0.301520
     48          1           0       -2.822274   -5.246717    0.846328
     49          1           0       -2.781187   -3.487712    1.045568
     50          1           0       -0.104104  -14.481716   -0.396483
     51          1           0       -2.411441  -13.314753   -1.543964
     52          1           0       -2.563611  -13.203586    0.211610
     53          1           0       -3.572009  -15.316135   -0.629433
     54          1           0       -2.033027  -15.795446   -1.356877
     55          1           0       -2.187410  -15.681296    0.408653
     56          1           0        1.899699  -14.322314    0.663534
     57          1           0        2.047707  -14.424932   -1.094854
     58          1           0        3.292672  -13.606517   -0.149684
     59          1           0        3.342393   -9.021842    4.603563
     60          1           0        3.167485   -7.273188    4.384157
     61          1           0        4.599436   -7.776775    6.387637
     62          1           0        5.720085   -8.691180    5.363757
     63          1           0        5.544523   -6.937154    5.145971
     64          1           0       -0.538776   -3.290603   -0.919285
 ---------------------------------------------------------------------

 SCF Done:  E(RCAM-B3LYP) =  -1419.32380240     A.U. after   20 cycles

 Excitation energies and oscillator strengths:

 Excited state symmetry could not be determined.
 Excited State   1:      Singlet-?Sym    3.0114 eV  411.71 nm  f=1.1356  <S**2>=0.000
     118 ->119         0.68628
 This state for optimization and/or second-order correction.
 Total Energy, E(TD-HF/TD-KS) =  -1419.21313424
 Copying the excited state density for this state as the 1-particle RhoCI density.

 Excited state symmetry could not be determined.
 Excited State   2:      Singlet-?Sym    3.9745 eV  311.95 nm  f=0.0011  <S**2>=0.000
     116 ->119        -0.21540
     117 ->119         0.63552
     118 ->124        -0.10150

 Excited state symmetry could not be determined.
 Excited State   3:      Singlet-?Sym    4.7685 eV  260.01 nm  f=0.4577  <S**2>=0.000
     113 ->119         0.13459
     116 ->119         0.57605
     117 ->119         0.21106
     118 ->131        -0.11146
     118 ->135         0.10070

 Excited state symmetry could not be determined.
 Excited State   4:      Singlet-?Sym    4.7907 eV  258.80 nm  f=0.0427  <S**2>=0.000
     113 ->119         0.51634
     114 ->119         0.10786
     115 ->119         0.22814
     116 ->119        -0.15311
     117 ->127        -0.11290
     117 ->130         0.10408
     118 ->134         0.14576

 Excited state symmetry could not be determined.
 Excited State   5:      Singlet-?Sym    5.1067 eV  242.79 nm  f=0.0531  <S**2>=0.000
     113 ->119        -0.11318
     114 ->119        -0.36927
     115 ->119         0.45204
     115 ->120        -0.14925
     118 ->120        -0.12373
     118 ->124        -0.13230

 Excited state symmetry could not be determined.
 Excited State   6:      Singlet-?Sym    5.1383 eV  241.29 nm  f=0.3207  <S**2>=0.000
     114 ->119        -0.21322
     115 ->119         0.22766
     115 ->120         0.26029
     117 ->119         0.12213
     118 ->120         0.24990
     118 ->122         0.13340
     118 ->124         0.26026
     118 ->127         0.20751
     118 ->130        -0.14955

 Excited state symmetry could not be determined.
 Excited State   7:      Singlet-?Sym    5.2179 eV  237.61 nm  f=0.0709  <S**2>=0.000
     114 ->122        -0.12394
     114 ->124        -0.17754
     114 ->130        -0.12588
     115 ->120         0.45840
     116 ->119         0.11782
     118 ->122        -0.12873
     118 ->124        -0.23717
     118 ->127        -0.15851
     118 ->130         0.10523

 Excited state symmetry could not be determined.
 Excited State   8:      Singlet-?Sym    5.3618 eV  231.24 nm  f=0.0026  <S**2>=0.000
     112 ->120         0.54852
     112 ->158        -0.17336
     112 ->159         0.13613
     116 ->120         0.27188

 Excited state symmetry could not be determined.
 Excited State   9:      Singlet-?Sym    5.4501 eV  227.49 nm  f=0.0098  <S**2>=0.000
     113 ->119         0.12323
     114 ->119         0.11166
     115 ->120        -0.11021
     118 ->120         0.52683
     118 ->122        -0.10929
     118 ->124        -0.16711
     118 ->125        -0.10744
     118 ->134        -0.14671
     118 ->136        -0.11435

 Excited state symmetry could not be determined.
 Excited State  10:      Singlet-?Sym    5.5220 eV  224.53 nm  f=0.0073  <S**2>=0.000
     113 ->119        -0.18187
     114 ->119        -0.16656
     115 ->119        -0.14032
     117 ->124        -0.10623
     118 ->120         0.32348
     118 ->125         0.14940
     118 ->129         0.15152
     118 ->131        -0.12334
     118 ->134         0.25191
     118 ->136         0.19692
     118 ->138        -0.15241

 Alpha  occ. eigenvalues --  -19.35781 -19.31483 -19.26395 -14.48943 -14.48916
 Alpha  occ. eigenvalues --  -10.46491 -10.41999 -10.41976 -10.39721 -10.39634
 Alpha  occ. eigenvalues --  -10.39400 -10.36836 -10.35891 -10.35224 -10.34999
 Alpha  occ. eigenvalues --  -10.34948 -10.34560 -10.34546 -10.34104 -10.34102
 Alpha  occ. eigenvalues --  -10.33919 -10.33897 -10.33534 -10.33501 -10.33423
 Alpha  occ. eigenvalues --  -10.32917 -10.32294 -10.32279 -10.31097 -10.31082
 Alpha  occ. eigenvalues --  -10.30244 -10.29958 -10.29777  -1.29758  -1.27787
 Alpha  occ. eigenvalues --   -1.18590  -1.12707  -1.12614  -1.06639  -1.04383
 Alpha  occ. eigenvalues --   -1.03614  -0.99180  -0.97199  -0.95269  -0.93949
 Alpha  occ. eigenvalues --   -0.93713  -0.92898  -0.91836  -0.91154  -0.89614
 Alpha  occ. eigenvalues --   -0.87243  -0.85424  -0.83168  -0.81571  -0.80251
 Alpha  occ. eigenvalues --   -0.79783  -0.79198  -0.77771  -0.76806  -0.75262
 Alpha  occ. eigenvalues --   -0.74680  -0.72894  -0.72606  -0.71487  -0.68729
 Alpha  occ. eigenvalues --   -0.67738  -0.67260  -0.64456  -0.64142  -0.64013
 Alpha  occ. eigenvalues --   -0.63611  -0.62500  -0.62352  -0.61592  -0.61311
 Alpha  occ. eigenvalues --   -0.61204  -0.60457  -0.59902  -0.59107  -0.58519
 Alpha  occ. eigenvalues --   -0.58417  -0.57659  -0.57278  -0.56922  -0.56754
 Alpha  occ. eigenvalues --   -0.56486  -0.56012  -0.54597  -0.53955  -0.53790
 Alpha  occ. eigenvalues --   -0.52228  -0.52068  -0.51953  -0.51901  -0.51684
 Alpha  occ. eigenvalues --   -0.51199  -0.50886  -0.50371  -0.50130  -0.49935
 Alpha  occ. eigenvalues --   -0.49697  -0.49517  -0.49189  -0.48807  -0.48442
 Alpha  occ. eigenvalues --   -0.48197  -0.47553  -0.46784  -0.46520  -0.44196
 Alpha  occ. eigenvalues --   -0.43690  -0.42114  -0.39230  -0.38213  -0.38019
 Alpha  occ. eigenvalues --   -0.36173  -0.34929  -0.30205
 Alpha virt. eigenvalues --   -0.04990   0.00234   0.02232   0.02785   0.02942
 Alpha virt. eigenvalues --    0.03228   0.03406   0.03845   0.03940   0.04271
 Alpha virt. eigenvalues --    0.04329   0.04492   0.04712   0.05176   0.05598

 Mulliken charges:
               1
     1  C   -0.031567
     2  C   -0.359590
     3  C   -0.105802
     4  C   -0.494492
     5  C   -0.097325
     6  C    0.429920
     7  O   -0.048079
     8  C    0.461824
     9  C    0.919197
    10  C    0.228737
    11  C   -0.102484
    12  C   -0.517445
    13  C   -0.385882
    14  C   -0.397816
    15  C   -0.061750
    16  C    0.311387
    17  C   -0.205853
    18  C   -0.089606
    19  C   -0.068493
    20  C   -0.491217
    21  C   -0.603006
    22  N   -0.089164
    23  C   -0.296984
    24  C   -0.429771
    25  N   -0.027830
    26  C   -0.051173
    27  C   -0.701775
    28  C   -0.676148
    29  C   -0.576657
    30  O   -0.183378
    31  O   -0.034637
    32  C    0.006623
    33  C   -0.610955
    34  H    0.265088
    35  H    0.152666
    36  H    0.276847
    37  H    0.219867
    38  H    0.246342
    39  H    0.235593
    40  H    0.258088
    41  H    0.153959
    42  H    0.196571
    43  H    0.197611
    44  H    0.191657
    45  H    0.187508
    46  H    0.212566
    47  H    0.159351
    48  H    0.144546
    49  H    0.169204
    50  H    0.388557
    51  H    0.193403
    52  H    0.190548
    53  H    0.180490
    54  H    0.168206
    55  H    0.169353
    56  H    0.192513
    57  H    0.191834
    58  H    0.194949
    59  H    0.195523
    60  H    0.191464
    61  H    0.172674
    62  H    0.163765
    63  H    0.166152
    64  H    0.354297
 Sum of Mulliken charges =   1.00000

 Dipole moment (field-independent basis, Debye):
    X=              2.5356    Y=            -42.3130    Z=             -2.2831  Tot=             42.4503
 Quadrupole moment (field-independent basis, Debye-Ang):
   XX=           -135.9751   YY=            298.3299   ZZ=           -176.6172
   XY=            -23.0951   XZ=              7.8626   YZ=             19.2290

 Normal termination of Gaussian 09 at Mon Feb 17 11:46:47 2020.
