 Gaussian 09, Revision D.01,
 Gaussian 09:  ES64L-G09RevD.01 24-Apr-2013

 ----------------------------------------------------------------------
 #p CAM-B3LYP/6-311++G** nosym density=current geom=allcheck EmpiricalD
 ispersion=GD3 SCRF=(CPCM, solvent=ethanol) IOP(10/74=10) TD=(NSTATES=1
 0,ROOT=1,NONEQ) iop(3/119=0810000000) iop(3/120=0810000000)
 ----------------------------------------------------------------------

 Structure from the checkpoint file:  "checkpointCPCM_ethanolES.chk"
 ---
 R6G
 ---
 Charge =  1 Multiplicity = 1

                          Input orientation:
 ---------------------------------------------------------------------
 Center     Atomic      Atomic             Coordinates (Angstroms)
 Number     Number       Type             X           Y           Z
 ---------------------------------------------------------------------
      1          6           0        1.485903  -12.464886   -0.364542
      2          6           0        0.044322  -12.455947   -0.484674
      3          6           0       -0.637278  -11.228273   -0.605433
      4          6           0        2.154747  -11.271924   -0.378137
      5          6           0        1.492567  -10.017222   -0.502960
      6          6           0        0.077723  -10.049323   -0.609431
      7          8           0       -0.637645   -8.898458   -0.716808
      8          6           0        2.148096   -8.774531   -0.498466
      9          6           0        3.637697   -8.710152   -0.450629
     10          6           0        4.368292   -8.544176    0.741506
     11          6           0        5.767163   -8.480044    0.686528
     12          6           0        6.437028   -8.579546   -0.527415
     13          6           0        5.712423   -8.744241   -1.706199
     14          6           0        4.321771   -8.808810   -1.664973
     15          6           0        1.394506   -7.596285   -0.630292
     16          6           0       -0.017884   -7.688301   -0.730012
     17          6           0       -0.826076   -6.577149   -0.836406
     18          6           0       -0.248701   -5.291626   -0.852212
     19          6           0        1.188374   -5.156376   -0.752057
     20          6           0        1.952200   -6.286346   -0.647443
     21          6           0        1.818055   -3.788850   -0.766690
     22          7           0       -1.007412   -4.180882   -0.974661
     23          6           0       -2.469221   -4.142972   -1.004701
     24          6           0       -3.103706   -4.295221    0.380744
     25          7           0       -0.629285  -13.624440   -0.476955
     26          6           0       -2.080447  -13.760023   -0.593469
     27          6           0       -2.485297  -15.227540   -0.532111
     28          6           0        2.220914  -13.771383   -0.226495
     29          6           0        3.652350   -8.447642    2.048980
     30          8           0        2.449794   -8.568234    2.179331
     31          8           0        4.481791   -8.213616    3.073288
     32          6           0        3.883752   -8.111470    4.397499
     33          6           0        5.009952   -7.881639    5.381432
     34          1           0       -1.713107  -11.182474   -0.692255
     35          1           0        3.234084  -11.271179   -0.288342
     36          1           0        6.324061   -8.353970    1.604776
     37          1           0        7.518895   -8.530007   -0.552804
     38          1           0        6.225121   -8.822871   -2.657604
     39          1           0        3.756931   -8.934166   -2.581130
     40          1           0       -1.894516   -6.721962   -0.899718
     41          1           0        3.028374   -6.189329   -0.572916
     42          1           0        2.901831   -3.863371   -0.678478
     43          1           0        1.595675   -3.253945   -1.696539
     44          1           0        1.459079   -3.171144    0.064024
     45          1           0       -2.830610   -4.916794   -1.686651
     46          1           0       -2.748251   -3.184422   -1.444097
     47          1           0       -4.192905   -4.263122    0.297060
     48          1           0       -2.823445   -5.244408    0.842585
     49          1           0       -2.783254   -3.485243    1.040241
     50          1           0       -0.101714  -14.479327   -0.391044
     51          1           0       -2.410258  -13.314887   -1.538687
     52          1           0       -2.561352  -13.201376    0.216848
     53          1           0       -3.569437  -15.315535   -0.620677
     54          1           0       -2.030782  -15.795204   -1.348447
     55          1           0       -2.184097  -15.678677    0.417044
     56          1           0        1.902461  -14.318080    0.667774
     57          1           0        2.049639  -14.422499   -1.090626
     58          1           0        3.294748  -13.602716   -0.146902
     59          1           0        3.339649   -9.035921    4.601150
     60          1           0        3.168832   -7.286171    4.387815
     61          1           0        4.598539   -7.800005    6.390400
     62          1           0        5.717760   -8.713255    5.363968
     63          1           0        5.546181   -6.958128    5.152223
     64          1           0       -0.540975   -3.289019   -0.924909
 ---------------------------------------------------------------------

 SCF Done:  E(RCAM-B3LYP) =  -1419.32312432     A.U. after   20 cycles

 Excitation energies and oscillator strengths:

 Excited state symmetry could not be determined.
 Excited State   1:      Singlet-?Sym    3.0076 eV  412.24 nm  f=1.1420  <S**2>=0.000
     118 ->119         0.68631
 This state for optimization and/or second-order correction.
 Total Energy, E(TD-HF/TD-KS) =  -1419.21259827
 Copying the excited state density for this state as the 1-particle RhoCI density.

 Excited state symmetry could not be determined.
 Excited State   2:      Singlet-?Sym    3.9738 eV  312.00 nm  f=0.0011  <S**2>=0.000
     116 ->119        -0.21486
     117 ->119         0.63576
     118 ->124        -0.10098

 Excited state symmetry could not be determined.
 Excited State   3:      Singlet-?Sym    4.7668 eV  260.10 nm  f=0.4700  <S**2>=0.000
     113 ->119         0.11853
     116 ->119         0.58121
     117 ->119         0.21208
     118 ->131        -0.11195
     118 ->135         0.10405

 Excited state symmetry could not be determined.
 Excited State   4:      Singlet-?Sym    4.7902 eV  258.83 nm  f=0.0352  <S**2>=0.000
     113 ->119         0.52061
     114 ->119         0.10748
     115 ->119         0.23125
     116 ->119        -0.13469
     117 ->127        -0.11545
     117 ->130         0.10273
     118 ->134         0.14842

 Excited state symmetry could not be determined.
 Excited State   5:      Singlet-?Sym    5.1064 eV  242.80 nm  f=0.0482  <S**2>=0.000
     113 ->119        -0.11312
     114 ->119        -0.37537
     115 ->119         0.45968
     115 ->120        -0.13997
     118 ->120        -0.11570
     118 ->124        -0.12486

 Excited state symmetry could not be determined.
 Excited State   6:      Singlet-?Sym    5.1372 eV  241.35 nm  f=0.3301  <S**2>=0.000
     114 ->119        -0.20034
     115 ->119         0.21479
     115 ->120         0.26259
     117 ->119         0.12601
     118 ->120         0.25151
     118 ->122         0.14056
     118 ->124         0.26522
     118 ->127         0.21329
     118 ->130        -0.14894

 Excited state symmetry could not be determined.
 Excited State   7:      Singlet-?Sym    5.2178 eV  237.62 nm  f=0.0684  <S**2>=0.000
     114 ->122        -0.12692
     114 ->124        -0.17647
     114 ->127         0.10121
     114 ->130        -0.12505
     115 ->120         0.46159
     116 ->119         0.11648
     118 ->122        -0.13119
     118 ->124        -0.23382
     118 ->127        -0.15793
     118 ->130         0.10187

 Excited state symmetry could not be determined.
 Excited State   8:      Singlet-?Sym    5.3605 eV  231.29 nm  f=0.0025  <S**2>=0.000
     112 ->120         0.54898
     112 ->158        -0.17518
     112 ->159         0.13621
     116 ->120         0.27305

 Excited state symmetry could not be determined.
 Excited State   9:      Singlet-?Sym    5.4537 eV  227.34 nm  f=0.0094  <S**2>=0.000
     113 ->119         0.12463
     114 ->119         0.11220
     115 ->120        -0.10891
     118 ->120         0.52482
     118 ->122        -0.11056
     118 ->124        -0.16440
     118 ->125        -0.10856
     118 ->134        -0.15320
     118 ->136        -0.11771

 Excited state symmetry could not be determined.
 Excited State  10:      Singlet-?Sym    5.5207 eV  224.58 nm  f=0.0073  <S**2>=0.000
     113 ->119        -0.18119
     114 ->119        -0.16647
     115 ->119        -0.13891
     117 ->124        -0.10522
     118 ->120         0.32821
     118 ->125         0.15081
     118 ->129         0.15025
     118 ->131        -0.12487
     118 ->134         0.25586
     118 ->136         0.19802
     118 ->138        -0.14329

 Alpha  occ. eigenvalues --  -19.35886 -19.31572 -19.26483 -14.49052 -14.49027
 Alpha  occ. eigenvalues --  -10.46579 -10.42104 -10.42082 -10.39829 -10.39741
 Alpha  occ. eigenvalues --  -10.39506 -10.36925 -10.35993 -10.35324 -10.35110
 Alpha  occ. eigenvalues --  -10.35061 -10.34665 -10.34652 -10.34212 -10.34210
 Alpha  occ. eigenvalues --  -10.34027 -10.34005 -10.33635 -10.33606 -10.33528
 Alpha  occ. eigenvalues --  -10.33019 -10.32401 -10.32385 -10.31211 -10.31195
 Alpha  occ. eigenvalues --  -10.30351 -10.30045 -10.29882  -1.29864  -1.27877
 Alpha  occ. eigenvalues --   -1.18680  -1.12815  -1.12723  -1.06743  -1.04489
 Alpha  occ. eigenvalues --   -1.03719  -0.99287  -0.97307  -0.95364  -0.94056
 Alpha  occ. eigenvalues --   -0.93821  -0.93004  -0.91931  -0.91261  -0.89722
 Alpha  occ. eigenvalues --   -0.87352  -0.85533  -0.83270  -0.81674  -0.80355
 Alpha  occ. eigenvalues --   -0.79890  -0.79306  -0.77870  -0.76915  -0.75369
 Alpha  occ. eigenvalues --   -0.74783  -0.73003  -0.72709  -0.71583  -0.68828
 Alpha  occ. eigenvalues --   -0.67845  -0.67368  -0.64564  -0.64231  -0.64112
 Alpha  occ. eigenvalues --   -0.63716  -0.62603  -0.62452  -0.61701  -0.61421
 Alpha  occ. eigenvalues --   -0.61313  -0.60555  -0.60007  -0.59213  -0.58625
 Alpha  occ. eigenvalues --   -0.58525  -0.57766  -0.57382  -0.57019  -0.56862
 Alpha  occ. eigenvalues --   -0.56596  -0.56120  -0.54707  -0.54065  -0.53882
 Alpha  occ. eigenvalues --   -0.52337  -0.52173  -0.52049  -0.52002  -0.51788
 Alpha  occ. eigenvalues --   -0.51309  -0.50990  -0.50478  -0.50236  -0.50044
 Alpha  occ. eigenvalues --   -0.49804  -0.49625  -0.49292  -0.48895  -0.48550
 Alpha  occ. eigenvalues --   -0.48291  -0.47661  -0.46890  -0.46627  -0.44299
 Alpha  occ. eigenvalues --   -0.43784  -0.42205  -0.39335  -0.38314  -0.38121
 Alpha  occ. eigenvalues --   -0.36280  -0.35035  -0.30314
 Alpha virt. eigenvalues --   -0.05095   0.00137   0.02140   0.02688   0.02853
 Alpha virt. eigenvalues --    0.03127   0.03317   0.03751   0.03843   0.04184
 Alpha virt. eigenvalues --    0.04240   0.04396   0.04619   0.05089   0.05504

 Mulliken charges:
               1
     1  C   -0.032086
     2  C   -0.359491
     3  C   -0.105381
     4  C   -0.492508
     5  C   -0.096557
     6  C    0.429798
     7  O   -0.047998
     8  C    0.459881
     9  C    0.923260
    10  C    0.228687
    11  C   -0.100785
    12  C   -0.517601
    13  C   -0.385962
    14  C   -0.397573
    15  C   -0.060894
    16  C    0.310866
    17  C   -0.207270
    18  C   -0.088097
    19  C   -0.068304
    20  C   -0.493174
    21  C   -0.602593
    22  N   -0.089408
    23  C   -0.296718
    24  C   -0.429575
    25  N   -0.028135
    26  C   -0.051325
    27  C   -0.701457
    28  C   -0.676017
    29  C   -0.578563
    30  O   -0.182022
    31  O   -0.034911
    32  C    0.005676
    33  C   -0.610714
    34  H    0.264739
    35  H    0.152422
    36  H    0.276937
    37  H    0.219654
    38  H    0.246116
    39  H    0.235238
    40  H    0.257670
    41  H    0.153415
    42  H    0.196596
    43  H    0.197400
    44  H    0.191388
    45  H    0.187381
    46  H    0.212386
    47  H    0.159440
    48  H    0.144616
    49  H    0.169179
    50  H    0.388202
    51  H    0.193349
    52  H    0.190477
    53  H    0.180557
    54  H    0.168179
    55  H    0.169346
    56  H    0.192396
    57  H    0.191642
    58  H    0.194903
    59  H    0.195446
    60  H    0.191501
    61  H    0.172579
    62  H    0.163822
    63  H    0.166081
    64  H    0.353895
 Sum of Mulliken charges =   1.00000

 Dipole moment (field-independent basis, Debye):
    X=              2.5424    Y=            -42.3182    Z=             -2.2639  Tot=             42.4549
 Quadrupole moment (field-independent basis, Debye-Ang):
   XX=           -135.9507   YY=            298.2563   ZZ=           -176.5909
   XY=            -23.1846   XZ=              7.8805   YZ=             18.8474

 Normal termination of Gaussian 09 at Mon Feb 17 12:00:11 2020.
