 Gaussian 09, Revision D.01,
 Gaussian 09:  ES64L-G09RevD.01 24-Apr-2013

 ----------------------------------------------------------------------
 #p CAM-B3LYP/6-311++G** geom=allcheck nosym TD=(NSTATES=30,ROOT=1) den
 sity=current iop(3/119=0810000000) iop(3/120=0810000000)
 ----------------------------------------------------------------------

 Structure from the checkpoint file:  "checkpoint.chk"
 ---
 R6G
 ---
 Charge =  1 Multiplicity = 1

                          Input orientation:
 ---------------------------------------------------------------------
 Center     Atomic      Atomic             Coordinates (Angstroms)
 Number     Number       Type             X           Y           Z
 ---------------------------------------------------------------------
      1          6           0        1.504605  -12.430018   -0.345191
      2          6           0        0.062644  -12.426181   -0.439688
      3          6           0       -0.623802  -11.203752   -0.553809
      4          6           0        2.168084  -11.233623   -0.365889
      5          6           0        1.501691   -9.979515   -0.478628
      6          6           0        0.086450  -10.020239   -0.569904
      7          8           0       -0.636408   -8.876093   -0.677411
      8          6           0        2.152785   -8.730454   -0.479881
      9          6           0        3.646257   -8.655139   -0.441477
     10          6           0        4.388296   -8.545492    0.752066
     11          6           0        5.786054   -8.478052    0.689737
     12          6           0        6.448365   -8.517786   -0.531855
     13          6           0        5.715906   -8.625705   -1.711152
     14          6           0        4.325269   -8.693865   -1.663454
     15          6           0        1.385565   -7.558863   -0.627085
     16          6           0       -0.026397   -7.663732   -0.716411
     17          6           0       -0.846398   -6.560977   -0.840724
     18          6           0       -0.282870   -5.272914   -0.888142
     19          6           0        1.152057   -5.121622   -0.796384
     20          6           0        1.927149   -6.242196   -0.670927
     21          6           0        1.770408   -3.748808   -0.844380
     22          7           0       -1.049982   -4.167186   -1.034067
     23          6           0       -2.510862   -4.128663   -1.113570
     24          6           0       -3.206562   -4.170233    0.249809
     25          7           0       -0.604992  -13.601709   -0.417822
     26          6           0       -2.056920  -13.755993   -0.501923
     27          6           0       -2.444772  -15.227967   -0.428976
     28          6           0        2.248407  -13.734220   -0.226029
     29          6           0        3.678088   -8.501629    2.069001
     30          8           0        2.472164   -8.558864    2.185754
     31          8           0        4.520089   -8.392441    3.103587
     32          6           0        3.926038   -8.342527    4.433882
     33          6           0        5.052119   -8.188088    5.432724
     34          1           0       -1.701095  -11.164043   -0.626310
     35          1           0        3.248722  -11.231369   -0.294195
     36          1           0        6.344700   -8.393829    1.611906
     37          1           0        7.530036   -8.464817   -0.562712
     38          1           0        6.222039   -8.657448   -2.668998
     39          1           0        3.757987   -8.777917   -2.583431
     40          1           0       -1.914184   -6.716504   -0.892724
     41          1           0        3.002355   -6.130966   -0.603536
     42          1           0        2.855206   -3.812170   -0.760432
     43          1           0        1.545375   -3.234197   -1.785526
     44          1           0        1.417065   -3.113530   -0.023985
     45          1           0       -2.848625   -4.950454   -1.750013
     46          1           0       -2.771258   -3.207813   -1.639370
     47          1           0       -4.290440   -4.131949    0.114991
     48          1           0       -2.964234   -5.082937    0.798559
     49          1           0       -2.911906   -3.316575    0.864614
     50          1           0       -0.064866  -14.447993   -0.330984
     51          1           0       -2.413702  -13.318067   -1.441104
     52          1           0       -2.527741  -13.201878    0.317976
     53          1           0       -3.529175  -15.330616   -0.492931
     54          1           0       -2.007577  -15.795653   -1.254823
     55          1           0       -2.122926  -15.676704    0.514624
     56          1           0        1.958632  -14.286308    0.675302
     57          1           0        2.067264  -14.385550   -1.088605
     58          1           0        3.323058  -13.561519   -0.169585
     59          1           0        3.358596   -9.262582    4.587327
     60          1           0        3.226872   -7.504697    4.463513
     61          1           0        4.637393   -8.149050    6.443078
     62          1           0        5.744325   -9.031115    5.381296
     63          1           0        5.610600   -7.266112    5.258067
     64          1           0       -0.577398   -3.277832   -1.023551
 ---------------------------------------------------------------------

 SCF Done:  E(RCAM-B3LYP) =  -1419.22366471     A.U. after   19 cycles

 Excitation energies and oscillator strengths:

 Excited state symmetry could not be determined.
 Excited State   1:      Singlet-?Sym    3.1752 eV  390.48 nm  f=0.9428  <S**2>=0.000
     118 ->119         0.68463
 This state for optimization and/or second-order correction.
 Total Energy, E(TD-HF/TD-KS) =  -1419.10697927
 Copying the excited state density for this state as the 1-particle RhoCI density.

 Excited state symmetry could not be determined.
 Excited State   2:      Singlet-?Sym    3.9818 eV  311.37 nm  f=0.0011  <S**2>=0.000
     116 ->119        -0.20026
     117 ->119         0.64008
     118 ->121        -0.11828

 Excited state symmetry could not be determined.
 Excited State   3:      Singlet-?Sym    4.7916 eV  258.75 nm  f=0.0061  <S**2>=0.000
     113 ->119         0.55040
     115 ->119        -0.24359
     117 ->121        -0.12629
     117 ->125         0.13317
     118 ->126         0.11167
     118 ->130         0.10647
     118 ->133         0.11553

 Excited state symmetry could not be determined.
 Excited State   4:      Singlet-?Sym    4.8340 eV  256.49 nm  f=0.3593  <S**2>=0.000
     116 ->119         0.60049
     117 ->119         0.21861
     118 ->128         0.16227

 Excited state symmetry could not be determined.
 Excited State   5:      Singlet-?Sym    5.0237 eV  246.80 nm  f=0.0038  <S**2>=0.000
     113 ->119        -0.12616
     114 ->119         0.48990
     115 ->119        -0.44543

 Excited state symmetry could not be determined.
 Excited State   6:      Singlet-?Sym    5.2183 eV  237.60 nm  f=0.2707  <S**2>=0.000
     114 ->121         0.12868
     114 ->125         0.13099
     115 ->120         0.38311
     117 ->119         0.12555
     118 ->120        -0.21527
     118 ->121         0.30215
     118 ->122        -0.11252
     118 ->123        -0.14773
     118 ->125        -0.18370

 Excited state symmetry could not be determined.
 Excited State   7:      Singlet-?Sym    5.2757 eV  235.01 nm  f=0.1254  <S**2>=0.000
     114 ->121         0.16675
     114 ->125         0.16080
     115 ->120         0.38788
     116 ->119         0.13830
     118 ->121        -0.32581
     118 ->122         0.12232
     118 ->123         0.14788
     118 ->125         0.16422

 Excited state symmetry could not be determined.
 Excited State   8:      Singlet-?Sym    5.2932 eV  234.23 nm  f=0.0008  <S**2>=0.000
     112 ->120         0.54472
     112 ->157        -0.21379
     112 ->159         0.11232
     116 ->120         0.28857

 Excited state symmetry could not be determined.
 Excited State   9:      Singlet-?Sym    5.4940 eV  225.67 nm  f=0.0043  <S**2>=0.000
     114 ->119         0.46228
     115 ->119         0.44927
     118 ->126         0.10981

 Excited state symmetry could not be determined.
 Excited State  10:      Singlet-?Sym    5.5831 eV  222.07 nm  f=0.0026  <S**2>=0.000
     113 ->119         0.35371
     114 ->119         0.12295
     115 ->119         0.10387
     116 ->121         0.10129
     116 ->128         0.10870
     117 ->121         0.12249
     118 ->125        -0.11370
     118 ->126        -0.26925
     118 ->127         0.12344
     118 ->130        -0.23180
     118 ->131         0.16864
     118 ->133        -0.23827

 Excited state symmetry could not be determined.
 Excited State  11:      Singlet-?Sym    5.6753 eV  218.46 nm  f=0.0166  <S**2>=0.000
     112 ->119         0.12604
     114 ->120        -0.26369
     118 ->120         0.53783
     118 ->121         0.18683
     118 ->128        -0.14127

 Excited state symmetry could not be determined.
 Excited State  12:      Singlet-?Sym    5.7146 eV  216.96 nm  f=0.0585  <S**2>=0.000
     112 ->119        -0.21629
     114 ->120         0.47005
     115 ->120         0.14043
     115 ->121        -0.10764
     115 ->125        -0.10312
     118 ->120         0.32462
     118 ->121         0.10436

 Excited state symmetry could not be determined.
 Excited State  13:      Singlet-?Sym    5.8208 eV  213.00 nm  f=0.0471  <S**2>=0.000
     112 ->119        -0.15951
     114 ->120        -0.26235
     116 ->119        -0.15155
     118 ->120         0.12916
     118 ->124        -0.14573
     118 ->125         0.22105
     118 ->128         0.36900
     118 ->135        -0.15754

 Excited state symmetry could not be determined.
 Excited State  14:      Singlet-?Sym    5.9795 eV  207.35 nm  f=0.0049  <S**2>=0.000
     116 ->123        -0.14925
     118 ->121         0.20119
     118 ->122         0.50398
     118 ->124         0.13456
     118 ->125         0.12487
     118 ->130        -0.14012
     118 ->131        -0.11256
     118 ->136         0.13064

 Excited state symmetry could not be determined.
 Excited State  15:      Singlet-?Sym    6.0716 eV  204.20 nm  f=0.0499  <S**2>=0.000
     112 ->119         0.59216
     114 ->120         0.12124
     116 ->119        -0.13645
     118 ->125         0.12166
     118 ->128         0.13857

 Excited state symmetry could not be determined.
 Excited State  16:      Singlet-?Sym    6.1672 eV  201.04 nm  f=0.4621  <S**2>=0.000
     110 ->119        -0.10374
     116 ->122        -0.18790
     117 ->121        -0.27160
     117 ->123         0.11364
     117 ->124        -0.11629
     117 ->125         0.14055
     118 ->121         0.16024
     118 ->123         0.40848
     118 ->138         0.10752

 Excited state symmetry could not be determined.
 Excited State  17:      Singlet-?Sym    6.1861 eV  200.42 nm  f=0.9058  <S**2>=0.000
     110 ->119         0.13495
     116 ->121        -0.14468
     117 ->121         0.28321
     117 ->122        -0.18358
     117 ->123        -0.16195
     117 ->125        -0.25279
     118 ->121         0.12288
     118 ->123         0.28633

 Excited state symmetry could not be determined.
 Excited State  18:      Singlet-?Sym    6.3748 eV  194.49 nm  f=0.0057  <S**2>=0.000
     107 ->119        -0.33297
     108 ->119        -0.25170
     109 ->119         0.44527

 Excited state symmetry could not be determined.
 Excited State  19:      Singlet-?Sym    6.3890 eV  194.06 nm  f=0.0944  <S**2>=0.000
     110 ->119         0.18288
     113 ->126         0.10929
     113 ->133         0.10009
     116 ->121         0.26611
     116 ->122        -0.10085
     116 ->123        -0.12544
     116 ->125        -0.17820
     117 ->128        -0.25965
     117 ->135         0.11186
     118 ->153        -0.23919

 Excited state symmetry could not be determined.
 Excited State  20:      Singlet-?Sym    6.5101 eV  190.45 nm  f=0.0050  <S**2>=0.000
     116 ->123         0.16965
     118 ->122        -0.12892
     118 ->124         0.14092
     118 ->125         0.27346
     118 ->126         0.17450
     118 ->127         0.42836

 Excited state symmetry could not be determined.
 Excited State  21:      Singlet-?Sym    6.5777 eV  188.49 nm  f=0.0471  <S**2>=0.000
     114 ->120        -0.11058
     118 ->120        -0.12330
     118 ->121         0.26325
     118 ->124        -0.26177
     118 ->125         0.32979
     118 ->126        -0.22318
     118 ->128        -0.22421

 Excited state symmetry could not be determined.
 Excited State  22:      Singlet-?Sym    6.6971 eV  185.13 nm  f=0.4136  <S**2>=0.000
     114 ->121        -0.19568
     114 ->125        -0.16072
     115 ->120         0.19694
     117 ->126        -0.13635
     117 ->127         0.11022
     117 ->130        -0.12422
     118 ->124         0.30906
     118 ->126        -0.13959
     118 ->130         0.16998
     118 ->131         0.12934
     118 ->137         0.10095

 Excited state symmetry could not be determined.
 Excited State  23:      Singlet-?Sym    6.7046 eV  184.92 nm  f=0.4098  <S**2>=0.000
     114 ->121         0.20674
     114 ->125         0.17035
     115 ->120        -0.21049
     117 ->125         0.10933
     117 ->126         0.15171
     118 ->124         0.25293
     118 ->125         0.11304
     118 ->126        -0.11009
     118 ->128         0.10486
     118 ->130         0.12530
     118 ->131         0.12175
     118 ->133         0.10050

 Excited state symmetry could not be determined.
 Excited State  24:      Singlet-?Sym    6.7974 eV  182.40 nm  f=0.4421  <S**2>=0.000
     114 ->120         0.21973
     115 ->121         0.34024
     115 ->122        -0.15678
     115 ->124        -0.13774
     115 ->125         0.27020
     117 ->122         0.14285
     118 ->124        -0.11772
     118 ->132         0.10148

 Excited state symmetry could not be determined.
 Excited State  25:      Singlet-?Sym    6.8178 eV  181.85 nm  f=0.0294  <S**2>=0.000
     114 ->120        -0.12264
     115 ->120         0.12256
     115 ->121        -0.17971
     115 ->125        -0.14838
     117 ->122         0.16687
     117 ->124         0.14792
     117 ->125         0.11825
     117 ->126         0.12194
     117 ->127         0.11024
     118 ->123         0.11648
     118 ->126         0.14712
     118 ->129         0.17468
     118 ->130        -0.10087
     118 ->132         0.18859

 Excited state symmetry could not be determined.
 Excited State  26:      Singlet-?Sym    6.8530 eV  180.92 nm  f=0.0055  <S**2>=0.000
     112 ->120         0.15175
     116 ->120        -0.38424
     116 ->121        -0.19887
     117 ->120         0.44835
     117 ->121         0.10264

 Excited state symmetry could not be determined.
 Excited State  27:      Singlet-?Sym    6.8741 eV  180.36 nm  f=0.0191  <S**2>=0.000
     111 ->120        -0.10437
     113 ->128        -0.16370
     114 ->121        -0.16981
     114 ->125        -0.13473
     115 ->120         0.17591
     117 ->126         0.21607
     117 ->127        -0.16900
     117 ->130         0.19407
     117 ->131        -0.11348
     117 ->133         0.16449
     118 ->132        -0.10964

 Excited state symmetry could not be determined.
 Excited State  28:      Singlet-?Sym    6.9105 eV  179.41 nm  f=0.0014  <S**2>=0.000
     110 ->119         0.13575
     116 ->125        -0.12392
     116 ->135         0.11018
     117 ->128         0.14328
     118 ->125        -0.15033
     118 ->126        -0.25210
     118 ->127         0.21359
     118 ->129         0.10792
     118 ->131        -0.11524
     118 ->132        -0.13286
     118 ->133         0.26291
     118 ->135         0.10771

 Excited state symmetry could not be determined.
 Excited State  29:      Singlet-?Sym    6.9953 eV  177.24 nm  f=0.0003  <S**2>=0.000
     113 ->126        -0.11247
     116 ->120        -0.17419
     116 ->121         0.11163
     116 ->125        -0.20745
     116 ->128        -0.15911
     117 ->124        -0.11498
     117 ->125         0.13689
     117 ->128         0.28849
     117 ->135        -0.16402
     118 ->126         0.15880
     118 ->132         0.10411
     118 ->133        -0.12527

 Excited state symmetry could not be determined.
 Excited State  30:      Singlet-?Sym    7.0130 eV  176.79 nm  f=0.0081  <S**2>=0.000
     110 ->119         0.38283
     111 ->119         0.38731
     116 ->121        -0.16189
     116 ->125         0.10504
     117 ->121        -0.11782

 Alpha  occ. eigenvalues --  -19.44242 -19.38842 -19.33707 -14.57711 -14.57646
 Alpha  occ. eigenvalues --  -10.53807 -10.50505 -10.50496 -10.48330 -10.48177
 Alpha  occ. eigenvalues --  -10.48072 -10.44218 -10.44196 -10.43798 -10.43784
 Alpha  occ. eigenvalues --  -10.43287 -10.43123 -10.43118 -10.42723 -10.42696
 Alpha  occ. eigenvalues --  -10.42564 -10.42521 -10.41910 -10.41688 -10.41580
 Alpha  occ. eigenvalues --  -10.41107 -10.40886 -10.40845 -10.40066 -10.40021
 Alpha  occ. eigenvalues --  -10.38741 -10.38150 -10.37121  -1.38305  -1.35154
 Alpha  occ. eigenvalues --   -1.26015  -1.21331  -1.21272  -1.14912  -1.12927
 Alpha  occ. eigenvalues --   -1.11925  -1.07682  -1.05804  -1.03023  -1.02489
 Alpha  occ. eigenvalues --   -1.02304  -1.01343  -0.99652  -0.99482  -0.98222
 Alpha  occ. eigenvalues --   -0.95957  -0.94096  -0.91410  -0.89852  -0.88560
 Alpha  occ. eigenvalues --   -0.88234  -0.87854  -0.85752  -0.85339  -0.83784
 Alpha  occ. eigenvalues --   -0.83028  -0.81577  -0.80934  -0.79181  -0.76798
 Alpha  occ. eigenvalues --   -0.76256  -0.75808  -0.73110  -0.72049  -0.72033
 Alpha  occ. eigenvalues --   -0.71534  -0.71082  -0.70296  -0.70090  -0.69959
 Alpha  occ. eigenvalues --   -0.69842  -0.68326  -0.68251  -0.67553  -0.67024
 Alpha  occ. eigenvalues --   -0.66959  -0.66290  -0.65601  -0.65450  -0.65264
 Alpha  occ. eigenvalues --   -0.64809  -0.64268  -0.63304  -0.62681  -0.61360
 Alpha  occ. eigenvalues --   -0.60872  -0.60662  -0.60499  -0.59954  -0.59799
 Alpha  occ. eigenvalues --   -0.59302  -0.59177  -0.58846  -0.58599  -0.58404
 Alpha  occ. eigenvalues --   -0.58217  -0.57975  -0.57391  -0.57112  -0.56142
 Alpha  occ. eigenvalues --   -0.56034  -0.55741  -0.55238  -0.54974  -0.52669
 Alpha  occ. eigenvalues --   -0.51096  -0.49593  -0.47677  -0.46323  -0.46230
 Alpha  occ. eigenvalues --   -0.44690  -0.43405  -0.38894
 Alpha virt. eigenvalues --   -0.13497  -0.07616  -0.05346  -0.05255  -0.04701
 Alpha virt. eigenvalues --   -0.04355  -0.04189  -0.03959  -0.03688  -0.03228
 Alpha virt. eigenvalues --   -0.02968  -0.02748  -0.02655  -0.01988  -0.01950

 Mulliken charges:
               1
     1  C   -0.011453
     2  C   -0.350481
     3  C   -0.096616
     4  C   -0.455945
     5  C   -0.065879
     6  C    0.442468
     7  O   -0.023175
     8  C    0.421310
     9  C    0.933454
    10  C    0.210156
    11  C   -0.084068
    12  C   -0.499994
    13  C   -0.355346
    14  C   -0.386361
    15  C   -0.051580
    16  C    0.342549
    17  C   -0.233778
    18  C   -0.083736
    19  C   -0.044218
    20  C   -0.518736
    21  C   -0.582127
    22  N   -0.101381
    23  C   -0.258799
    24  C   -0.420129
    25  N   -0.046316
    26  C   -0.059277
    27  C   -0.680348
    28  C   -0.662901
    29  C   -0.608246
    30  O   -0.118876
    31  O   -0.029109
    32  C   -0.019531
    33  C   -0.580432
    34  H    0.238281
    35  H    0.134776
    36  H    0.277201
    37  H    0.205996
    38  H    0.230778
    39  H    0.213237
    40  H    0.232241
    41  H    0.130401
    42  H    0.192482
    43  H    0.185740
    44  H    0.178512
    45  H    0.172224
    46  H    0.198203
    47  H    0.164550
    48  H    0.147548
    49  H    0.168110
    50  H    0.360701
    51  H    0.186655
    52  H    0.185254
    53  H    0.183115
    54  H    0.167548
    55  H    0.168304
    56  H    0.182240
    57  H    0.181235
    58  H    0.188754
    59  H    0.190920
    60  H    0.188823
    61  H    0.167732
    62  H    0.164181
    63  H    0.164392
    64  H    0.328769
 Sum of Mulliken charges =   1.00000

 Dipole moment (field-independent basis, Debye):
    X=              3.2780    Y=            -42.4094    Z=             -1.4519  Tot=             42.5607
 Quadrupole moment (field-independent basis, Debye-Ang):
   XX=           -132.4657   YY=            290.9905   ZZ=           -175.5571
   XY=            -29.3731   XZ=              9.3870   YZ=              9.1645

 Normal termination of Gaussian 09 at Sat May  2 00:53:53 2020.
