 Gaussian 09, Revision D.01,
 Gaussian 09:  ES64L-G09RevD.01 24-Apr-2013

 ----------------------------------------------------------------------
 #p CAM-B3LYP/6-311++G** nosym density=current geom=allcheck EmpiricalD
 ispersion=GD3 SCRF=(CPCM, solvent=acetonitrile) IOP(10/74=10) TD=(NSTA
 TES=10,ROOT=1,NONEQ) iop(3/119=0810000000) iop(3/120=0810000000)
 ----------------------------------------------------------------------

 Structure from the checkpoint file:  "checkpointCPCMES.chk"
 ------
 cation
 ------
 Charge =  1 Multiplicity = 1

                          Input orientation:
 ---------------------------------------------------------------------
 Center     Atomic      Atomic             Coordinates (Angstroms)
 Number     Number       Type             X           Y           Z
 ---------------------------------------------------------------------
      1          6           0        1.725352  -12.447408    0.296930
      2          6           0        0.496933  -12.598256   -0.443362
      3          6           0       -0.189708  -11.409422   -0.813155
      4          6           0        2.225894  -11.212654    0.606706
      5          6           0        1.560441  -10.009907    0.221092
      6          6           0        0.332562  -10.176700   -0.488538
      7          8           0       -0.397877   -9.091468   -0.868929
      8          6           0        2.012064   -8.707582    0.518109
      9          6           0        3.290849   -8.504571    1.257506
     10          6           0        3.331058   -7.999308    2.575459
     11          6           0        4.568797   -7.755497    3.188624
     12          6           0        5.759652   -8.031939    2.519684
     13          6           0        5.722533   -8.540800    1.218659
     14          6           0        4.496496   -8.770171    0.592689
     15          6           0        1.246268   -7.600867    0.102096
     16          6           0        0.020306   -7.823458   -0.593316
     17          6           0       -0.803124   -6.803421   -1.017280
     18          6           0       -0.443062   -5.448466   -0.781611
     19          6           0        0.799673   -5.206602   -0.091445
     20          6           0        1.600581   -6.236268    0.319742
     21          7           0       -1.225229   -4.422710   -1.199080
     22          6           0       -2.519126   -4.672210   -1.859536
     23          6           0       -3.653718   -5.015711   -0.886691
     24          7           0        0.021457  -13.824369   -0.772716
     25          6           0       -1.254240  -13.977874   -1.494976
     26          6           0       -2.491527  -13.871211   -0.595098
     27          6           0        2.108283   -7.675925    3.382454
     28          1           0       -1.132540  -11.427652   -1.340143
     29          1           0        3.152148  -11.142995    1.165398
     30          1           0        4.582631   -7.357637    4.197432
     31          1           0        6.710169   -7.850156    3.010336
     32          1           0        6.644316   -8.753715    0.686934
     33          1           0        4.466897   -9.142167   -0.426401
     34          1           0       -1.717661   -7.078034   -1.522479
     35          1           0        2.531745   -6.009224    0.825923
     36          1           0       -2.390543   -5.465555   -2.601525
     37          1           0       -2.770049   -3.769743   -2.419910
     38          1           0       -4.566669   -5.230482   -1.451141
     39          1           0       -3.410858   -5.893504   -0.281074
     40          1           0       -3.857157   -4.180548   -0.211435
     41          1           0       -1.229745  -14.955722   -1.979587
     42          1           0       -1.294910  -13.239337   -2.300451
     43          1           0       -3.396091  -13.950404   -1.206393
     44          1           0       -2.507394  -14.674639    0.145678
     45          1           0       -2.519618  -12.915658   -0.063613
     46          6           0       -0.877322   -3.018322   -0.911384
     47          6           0       -1.234971   -2.571416    0.510774
     48          1           0       -1.411978   -2.405536   -1.639343
     49          1           0        0.186813   -2.866368   -1.110342
     50          1           0       -2.313253   -2.628198    0.680958
     51          1           0       -0.918832   -1.533797    0.658142
     52          1           0       -0.737105   -3.191095    1.262323
     53          6           0        0.691934  -15.059894   -0.324761
     54          6           0        0.377191  -15.442145    1.125988
     55          1           0       -0.688542  -15.647443    1.255236
     56          1           0        0.658014  -14.644408    1.819725
     57          1           0        0.935580  -16.344134    1.396017
     58          1           0        1.769751  -14.955879   -0.474416
     59          1           0        0.368012  -15.856020   -0.997513
     60          1           0        1.121548   -4.195571    0.112677
     61          1           0        2.273354  -13.318347    0.626318
     62          8           0        2.042046   -6.704104    4.110705
     63          8           0        1.046420   -8.510597    3.312062
     64          1           0        1.230870   -9.310141    2.793605
 ---------------------------------------------------------------------

 SCF Done:  E(RCAM-B3LYP) =  -1419.29518241     A.U. after   18 cycles

 Excitation energies and oscillator strengths:

 Excited state symmetry could not be determined.
 Excited State   1:      Singlet-?Sym    2.7985 eV  443.03 nm  f=1.2409  <S**2>=0.000
     118 ->119         0.68531
 This state for optimization and/or second-order correction.
 Total Energy, E(TD-HF/TD-KS) =  -1419.19233796
 Copying the excited state density for this state as the 1-particle RhoCI density.

 Excited state symmetry could not be determined.
 Excited State   2:      Singlet-?Sym    3.8261 eV  324.05 nm  f=0.0098  <S**2>=0.000
     116 ->119         0.32212
     117 ->119         0.59007

 Excited state symmetry could not be determined.
 Excited State   3:      Singlet-?Sym    4.5052 eV  275.20 nm  f=0.4282  <S**2>=0.000
     114 ->119        -0.12975
     116 ->119         0.55574
     117 ->119        -0.29892
     118 ->132         0.15575

 Excited state symmetry could not be determined.
 Excited State   4:      Singlet-?Sym    4.7578 eV  260.59 nm  f=0.0103  <S**2>=0.000
     113 ->119         0.52300
     115 ->119        -0.16828
     116 ->132         0.11547
     117 ->121         0.11860
     117 ->122        -0.10710
     117 ->125        -0.13936
     118 ->120        -0.13002
     118 ->133         0.20360

 Excited state symmetry could not be determined.
 Excited State   5:      Singlet-?Sym    4.9228 eV  251.86 nm  f=0.2283  <S**2>=0.000
     114 ->119        -0.27576
     115 ->119         0.10378
     116 ->119         0.11729
     117 ->119         0.14023
     118 ->120         0.24880
     118 ->121         0.28544
     118 ->122        -0.21723
     118 ->125        -0.25244
     118 ->129         0.10435
     118 ->132        -0.14266

 Excited state symmetry could not be determined.
 Excited State   6:      Singlet-?Sym    5.0721 eV  244.44 nm  f=0.1199  <S**2>=0.000
     114 ->119        -0.27019
     114 ->120        -0.14727
     115 ->119         0.36742
     115 ->120         0.20948
     115 ->121        -0.12604
     116 ->119        -0.10880
     118 ->120        -0.13462
     118 ->121        -0.16660
     118 ->122         0.14055
     118 ->125         0.16385

 Excited state symmetry could not be determined.
 Excited State   7:      Singlet-?Sym    5.0892 eV  243.62 nm  f=0.1224  <S**2>=0.000
     114 ->119         0.48146
     115 ->119         0.17736
     115 ->120         0.29215
     118 ->120         0.15175

 Excited state symmetry could not be determined.
 Excited State   8:      Singlet-?Sym    5.2671 eV  235.39 nm  f=0.0155  <S**2>=0.000
     113 ->119         0.30231
     115 ->119        -0.15271
     117 ->132         0.13322
     118 ->120         0.33092
     118 ->121        -0.26883
     118 ->122         0.13802
     118 ->133        -0.25410

 Excited state symmetry could not be determined.
 Excited State   9:      Singlet-?Sym    5.4013 eV  229.54 nm  f=0.0354  <S**2>=0.000
     111 ->120        -0.41099
     111 ->147         0.16969
     111 ->150         0.11420
     112 ->120        -0.15086
     114 ->119        -0.13032
     114 ->120         0.19980
     115 ->119        -0.15775
     115 ->120         0.23888
     116 ->120        -0.11500

 Excited state symmetry could not be determined.
 Excited State  10:      Singlet-?Sym    5.5181 eV  224.69 nm  f=0.0249  <S**2>=0.000
     113 ->119         0.12614
     114 ->120         0.31576
     115 ->119         0.46875
     115 ->120        -0.15243
     115 ->121         0.11709
     116 ->120        -0.19725

 Alpha  occ. eigenvalues --  -19.36041 -19.32728 -19.27062 -14.50147 -14.50070
 Alpha  occ. eigenvalues --  -10.47800 -10.42746 -10.42654 -10.40471 -10.40378
 Alpha  occ. eigenvalues --  -10.40196 -10.36753 -10.36222 -10.35706 -10.35525
 Alpha  occ. eigenvalues --  -10.35228 -10.35111 -10.35098 -10.35067 -10.35053
 Alpha  occ. eigenvalues --  -10.35032 -10.34209 -10.34187 -10.33869 -10.33550
 Alpha  occ. eigenvalues --  -10.33539 -10.33449 -10.32902 -10.32826 -10.30071
 Alpha  occ. eigenvalues --  -10.30064 -10.30030 -10.30026  -1.29957  -1.28161
 Alpha  occ. eigenvalues --   -1.19344  -1.13779  -1.13702  -1.07326  -1.04965
 Alpha  occ. eigenvalues --   -1.04003  -0.99431  -0.96255  -0.94447  -0.94045
 Alpha  occ. eigenvalues --   -0.93966  -0.93343  -0.93195  -0.91435  -0.90017
 Alpha  occ. eigenvalues --   -0.88190  -0.84307  -0.82960  -0.82128  -0.80428
 Alpha  occ. eigenvalues --   -0.79988  -0.79030  -0.78008  -0.77248  -0.76859
 Alpha  occ. eigenvalues --   -0.75925  -0.75509  -0.71055  -0.70535  -0.70225
 Alpha  occ. eigenvalues --   -0.68220  -0.66614  -0.65848  -0.65189  -0.64534
 Alpha  occ. eigenvalues --   -0.64242  -0.63427  -0.62836  -0.61476  -0.61028
 Alpha  occ. eigenvalues --   -0.60452  -0.59842  -0.59485  -0.59151  -0.58973
 Alpha  occ. eigenvalues --   -0.58658  -0.58065  -0.57823  -0.57130  -0.56952
 Alpha  occ. eigenvalues --   -0.56811  -0.56146  -0.56061  -0.54796  -0.53850
 Alpha  occ. eigenvalues --   -0.53666  -0.53236  -0.52898  -0.52067  -0.51726
 Alpha  occ. eigenvalues --   -0.51333  -0.51146  -0.51086  -0.50572  -0.50266
 Alpha  occ. eigenvalues --   -0.49953  -0.49022  -0.48900  -0.48680  -0.48358
 Alpha  occ. eigenvalues --   -0.47432  -0.47150  -0.46178  -0.46019  -0.45947
 Alpha  occ. eigenvalues --   -0.43500  -0.43300  -0.40527  -0.38956  -0.38491
 Alpha  occ. eigenvalues --   -0.37126  -0.34733  -0.30355
 Alpha virt. eigenvalues --   -0.06347   0.00102   0.02153   0.02446   0.03030
 Alpha virt. eigenvalues --    0.03068   0.03483   0.03583   0.03905   0.04242
 Alpha virt. eigenvalues --    0.04340   0.04386   0.04717   0.04950   0.05043

 Mulliken charges:
               1
     1  C   -0.256668
     2  C   -0.459131
     3  C   -0.159190
     4  C   -0.477552
     5  C   -0.148963
     6  C    0.545692
     7  O   -0.025360
     8  C    0.477423
     9  C    0.289591
    10  C    0.492372
    11  C   -0.135984
    12  C   -0.349864
    13  C   -0.456584
    14  C   -0.361615
    15  C   -0.085957
    16  C    0.583263
    17  C   -0.157645
    18  C   -0.536906
    19  C   -0.202522
    20  C   -0.435255
    21  N    0.195510
    22  C   -0.302722
    23  C   -0.436717
    24  N    0.203161
    25  C   -0.299115
    26  C   -0.436904
    27  C   -0.589062
    28  H    0.278234
    29  H    0.240212
    30  H    0.263260
    31  H    0.234994
    32  H    0.244933
    33  H    0.243460
    34  H    0.279922
    35  H    0.253469
    36  H    0.196143
    37  H    0.197563
    38  H    0.162700
    39  H    0.148266
    40  H    0.160893
    41  H    0.200470
    42  H    0.193385
    43  H    0.162261
    44  H    0.160854
    45  H    0.149825
    46  C   -0.275912
    47  C   -0.443659
    48  H    0.194397
    49  H    0.187793
    50  H    0.159770
    51  H    0.165470
    52  H    0.150517
    53  C   -0.277428
    54  C   -0.443696
    55  H    0.160651
    56  H    0.145733
    57  H    0.164826
    58  H    0.190727
    59  H    0.188843
    60  H    0.263440
    61  H    0.255366
    62  O   -0.273410
    63  O   -0.074610
    64  H    0.317042
 Sum of Mulliken charges =   1.00000

 Dipole moment (field-independent basis, Debye):
    X=              1.4157    Y=            -47.4981    Z=             -7.1010  Tot=             48.0468
 Quadrupole moment (field-independent basis, Debye-Ang):
   XX=           -144.7382   YY=            394.4859   ZZ=           -208.3733
   XY=            -31.2132   XZ=             16.4012   YZ=             44.8785

 Normal termination of Gaussian 09 at Mon Feb 17 11:44:48 2020.
