 Gaussian 09, Revision D.01,
 Gaussian 09:  ES64L-G09RevD.01 24-Apr-2013

 ----------------------------------------------------------------------
 #p CAM-B3LYP/6-311++G** nosym density=current geom=allcheck EmpiricalD
 ispersion=GD3 SCRF=(CPCM, solvent=ethanol) IOP(10/74=10) TD=(NSTATES=1
 0,ROOT=1,NONEQ) iop(3/119=0810000000) iop(3/120=0810000000)
 ----------------------------------------------------------------------

 Structure from the checkpoint file:  "checkpointCPCM_ethanolES.chk"
 ------
 cation
 ------
 Charge =  1 Multiplicity = 1

                          Input orientation:
 ---------------------------------------------------------------------
 Center     Atomic      Atomic             Coordinates (Angstroms)
 Number     Number       Type             X           Y           Z
 ---------------------------------------------------------------------
      1          6           0        1.724607  -12.438019    0.296993
      2          6           0        0.498836  -12.590513   -0.442281
      3          6           0       -0.185695  -11.404965   -0.815480
      4          6           0        2.223429  -11.206025    0.603228
      5          6           0        1.558642  -10.006568    0.215141
      6          6           0        0.333696  -10.173862   -0.494155
      7          8           0       -0.395051   -9.090643   -0.876828
      8          6           0        2.009285   -8.706380    0.509064
      9          6           0        3.285274   -8.502987    1.250835
     10          6           0        3.320331   -8.008373    2.568987
     11          6           0        4.553010   -7.767441    3.186009
     12          6           0        5.742998   -8.036075    2.519710
     13          6           0        5.710551   -8.532334    1.217507
     14          6           0        4.490000   -8.759261    0.587844
     15          6           0        1.246296   -7.602036    0.092414
     16          6           0        0.022426   -7.824314   -0.601658
     17          6           0       -0.797858   -6.805310   -1.023183
     18          6           0       -0.438638   -5.453388   -0.785711
     19          6           0        0.803658   -5.212893   -0.099509
     20          6           0        1.601760   -6.240148    0.309722
     21          7           0       -1.220814   -4.429248   -1.197060
     22          6           0       -2.517303   -4.676331   -1.852207
     23          6           0       -3.646831   -5.021727   -0.876666
     24          7           0        0.024373  -13.814897   -0.767187
     25          6           0       -1.250700  -13.971502   -1.488753
     26          6           0       -2.487177  -13.863584   -0.590620
     27          6           0        2.094030   -7.688850    3.372050
     28          1           0       -1.126225  -11.425866   -1.343066
     29          1           0        3.148119  -11.134292    1.160961
     30          1           0        4.563958   -7.378007    4.196192
     31          1           0        6.690400   -7.856883    3.013260
     32          1           0        6.632984   -8.737089    0.687459
     33          1           0        4.464153   -9.122342   -0.432524
     34          1           0       -1.711506   -7.077347   -1.527797
     35          1           0        2.532557   -6.015294    0.813831
     36          1           0       -2.392911   -5.466182   -2.595819
     37          1           0       -2.769276   -3.773563   -2.408039
     38          1           0       -4.560635   -5.234680   -1.436914
     39          1           0       -3.401951   -5.899859   -0.275679
     40          1           0       -3.847707   -4.189902   -0.199472
     41          1           0       -1.224729  -14.948949   -1.969960
     42          1           0       -1.292193  -13.236658   -2.294964
     43          1           0       -3.390023  -13.945377   -1.200882
     44          1           0       -2.503144  -14.663328    0.151451
     45          1           0       -2.516316  -12.907761   -0.063460
     46          6           0       -0.872977   -3.025585   -0.908166
     47          6           0       -1.228121   -2.580609    0.513501
     48          1           0       -1.407854   -2.413566   -1.633873
     49          1           0        0.188888   -2.873384   -1.108148
     50          1           0       -2.304309   -2.636641    0.685398
     51          1           0       -0.911949   -1.545002    0.661531
     52          1           0       -0.729720   -3.200291    1.262002
     53          6           0        0.694056  -15.049195   -0.316341
     54          6           0        0.378430  -15.428909    1.133198
     55          1           0       -0.685499  -15.633935    1.262252
     56          1           0        0.658853  -14.631446    1.824504
     57          1           0        0.935562  -16.329044    1.404713
     58          1           0        1.770119  -14.945773   -0.464737
     59          1           0        0.371314  -15.844743   -0.987403
     60          1           0        1.124619   -4.203019    0.102745
     61          1           0        2.270592  -13.307880    0.627024
     62          8           0        2.018245   -6.719056    4.088741
     63          8           0        1.043573   -8.536284    3.302341
     64          1           0        1.243277   -9.329940    2.786274
 ---------------------------------------------------------------------

 SCF Done:  E(RCAM-B3LYP) =  -1419.29704945     A.U. after   20 cycles

 Excitation energies and oscillator strengths:

 Excited state symmetry could not be determined.
 Excited State   1:      Singlet-?Sym    2.8092 eV  441.35 nm  f=1.2521  <S**2>=0.000
     118 ->119         0.68553
 This state for optimization and/or second-order correction.
 Total Energy, E(TD-HF/TD-KS) =  -1419.19381267
 Copying the excited state density for this state as the 1-particle RhoCI density.

 Excited state symmetry could not be determined.
 Excited State   2:      Singlet-?Sym    3.8508 eV  321.97 nm  f=0.0105  <S**2>=0.000
     116 ->119         0.31947
     117 ->119         0.59120

 Excited state symmetry could not be determined.
 Excited State   3:      Singlet-?Sym    4.5360 eV  273.33 nm  f=0.4205  <S**2>=0.000
     114 ->119        -0.12431
     116 ->119         0.55549
     117 ->119        -0.29832
     118 ->132         0.14923

 Excited state symmetry could not be determined.
 Excited State   4:      Singlet-?Sym    4.7865 eV  259.03 nm  f=0.0107  <S**2>=0.000
     113 ->119         0.51990
     115 ->119        -0.16587
     116 ->132         0.10842
     117 ->121         0.10855
     117 ->122        -0.11885
     117 ->125        -0.14403
     118 ->120        -0.12616
     118 ->133         0.20329

 Excited state symmetry could not be determined.
 Excited State   5:      Singlet-?Sym    4.9411 eV  250.93 nm  f=0.2485  <S**2>=0.000
     114 ->119         0.26921
     116 ->119        -0.12905
     117 ->119        -0.13653
     118 ->120        -0.25629
     118 ->121        -0.26753
     118 ->122         0.24845
     118 ->125         0.25636
     118 ->129        -0.11174
     118 ->132         0.13186

 Excited state symmetry could not be determined.
 Excited State   6:      Singlet-?Sym    5.0974 eV  243.23 nm  f=0.1860  <S**2>=0.000
     114 ->119         0.45315
     114 ->120         0.10365
     115 ->119        -0.26719
     116 ->119         0.11226
     118 ->120         0.17427
     118 ->121         0.14711
     118 ->122        -0.15769
     118 ->125        -0.18331

 Excited state symmetry could not be determined.
 Excited State   7:      Singlet-?Sym    5.1241 eV  241.96 nm  f=0.0480  <S**2>=0.000
     113 ->119         0.12740
     114 ->119         0.32930
     114 ->120        -0.13717
     115 ->119         0.32140
     115 ->120         0.34186
     115 ->121        -0.13646
     116 ->120         0.11344

 Excited state symmetry could not be determined.
 Excited State   8:      Singlet-?Sym    5.2948 eV  234.16 nm  f=0.0128  <S**2>=0.000
     113 ->119         0.31228
     115 ->119        -0.15429
     117 ->132         0.12839
     118 ->120         0.31663
     118 ->121        -0.24840
     118 ->122         0.15605
     118 ->133        -0.25313
     118 ->138        -0.10551

 Excited state symmetry could not be determined.
 Excited State   9:      Singlet-?Sym    5.4575 eV  227.18 nm  f=0.0389  <S**2>=0.000
     111 ->120        -0.37673
     111 ->147         0.14604
     111 ->148         0.10325
     111 ->150        -0.11601
     112 ->120         0.20427
     114 ->119        -0.12046
     114 ->120         0.18860
     115 ->119        -0.16911
     115 ->120         0.26227
     116 ->120        -0.10631

 Excited state symmetry could not be determined.
 Excited State  10:      Singlet-?Sym    5.5465 eV  223.54 nm  f=0.0243  <S**2>=0.000
     113 ->119         0.12635
     114 ->120         0.31993
     115 ->119         0.46036
     115 ->120        -0.14537
     115 ->121         0.11363
     116 ->120        -0.19730

 Alpha  occ. eigenvalues --  -19.36133 -19.32716 -19.27146 -14.50229 -14.50161
 Alpha  occ. eigenvalues --  -10.47725 -10.42752 -10.42662 -10.40473 -10.40385
 Alpha  occ. eigenvalues --  -10.40165 -10.36703 -10.36168 -10.35681 -10.35500
 Alpha  occ. eigenvalues --  -10.35228 -10.35159 -10.35127 -10.35109 -10.35099
 Alpha  occ. eigenvalues --  -10.35091 -10.34163 -10.34150 -10.33818 -10.33538
 Alpha  occ. eigenvalues --  -10.33505 -10.33436 -10.32896 -10.32816 -10.30119
 Alpha  occ. eigenvalues --  -10.30111 -10.30072 -10.30063  -1.30178  -1.28437
 Alpha  occ. eigenvalues --   -1.19740  -1.13999  -1.13923  -1.07547  -1.05197
 Alpha  occ. eigenvalues --   -1.04239  -0.99641  -0.96465  -0.94608  -0.94224
 Alpha  occ. eigenvalues --   -0.94155  -0.93516  -0.93377  -0.91629  -0.90216
 Alpha  occ. eigenvalues --   -0.88369  -0.84445  -0.83148  -0.82269  -0.80555
 Alpha  occ. eigenvalues --   -0.80169  -0.79197  -0.78186  -0.77372  -0.77019
 Alpha  occ. eigenvalues --   -0.76084  -0.75679  -0.71226  -0.70721  -0.70400
 Alpha  occ. eigenvalues --   -0.68398  -0.66808  -0.66026  -0.65349  -0.64681
 Alpha  occ. eigenvalues --   -0.64435  -0.63598  -0.63023  -0.61657  -0.61191
 Alpha  occ. eigenvalues --   -0.60577  -0.60019  -0.59655  -0.59319  -0.59150
 Alpha  occ. eigenvalues --   -0.58824  -0.58222  -0.57959  -0.57299  -0.57104
 Alpha  occ. eigenvalues --   -0.56981  -0.56313  -0.56222  -0.54953  -0.53989
 Alpha  occ. eigenvalues --   -0.53813  -0.53415  -0.53054  -0.52226  -0.51874
 Alpha  occ. eigenvalues --   -0.51486  -0.51286  -0.51233  -0.50705  -0.50402
 Alpha  occ. eigenvalues --   -0.50082  -0.49145  -0.49050  -0.48828  -0.48479
 Alpha  occ. eigenvalues --   -0.47536  -0.47332  -0.46338  -0.46147  -0.46066
 Alpha  occ. eigenvalues --   -0.43611  -0.43455  -0.40699  -0.39076  -0.38617
 Alpha  occ. eigenvalues --   -0.37290  -0.34866  -0.30452
 Alpha virt. eigenvalues --   -0.06366   0.00191   0.02107   0.02368   0.02967
 Alpha virt. eigenvalues --    0.02976   0.03441   0.03491   0.03814   0.04161
 Alpha virt. eigenvalues --    0.04261   0.04304   0.04629   0.04909   0.04988

 Mulliken charges:
               1
     1  C   -0.254080
     2  C   -0.461244
     3  C   -0.157887
     4  C   -0.481948
     5  C   -0.155435
     6  C    0.554197
     7  O   -0.026536
     8  C    0.483048
     9  C    0.295851
    10  C    0.484277
    11  C   -0.131845
    12  C   -0.345783
    13  C   -0.457562
    14  C   -0.364711
    15  C   -0.085361
    16  C    0.592715
    17  C   -0.156479
    18  C   -0.540882
    19  C   -0.199999
    20  C   -0.438030
    21  N    0.192676
    22  C   -0.303228
    23  C   -0.434571
    24  N    0.200801
    25  C   -0.299844
    26  C   -0.434806
    27  C   -0.592171
    28  H    0.277597
    29  H    0.240280
    30  H    0.262344
    31  H    0.233448
    32  H    0.243622
    33  H    0.241597
    34  H    0.279044
    35  H    0.252548
    36  H    0.196139
    37  H    0.196791
    38  H    0.162651
    39  H    0.147886
    40  H    0.160640
    41  H    0.199992
    42  H    0.193179
    43  H    0.162251
    44  H    0.160623
    45  H    0.149306
    46  C   -0.276086
    47  C   -0.441974
    48  H    0.194218
    49  H    0.187311
    50  H    0.159422
    51  H    0.165403
    52  H    0.150343
    53  C   -0.277797
    54  C   -0.441837
    55  H    0.160390
    56  H    0.145268
    57  H    0.164837
    58  H    0.190447
    59  H    0.188616
    60  H    0.262128
    61  H    0.254231
    62  O   -0.267363
    63  O   -0.073742
    64  H    0.315086
 Sum of Mulliken charges =   1.00000

 Dipole moment (field-independent basis, Debye):
    X=              1.4293    Y=            -47.3925    Z=             -6.9785  Tot=             47.9249
 Quadrupole moment (field-independent basis, Debye-Ang):
   XX=           -144.9364   YY=            392.5810   ZZ=           -207.5984
   XY=            -31.0645   XZ=             16.5898   YZ=             44.1702

 Normal termination of Gaussian 09 at Mon Feb 17 11:47:13 2020.
