 Gaussian 09, Revision D.01,
 Gaussian 09:  ES64L-G09RevD.01 24-Apr-2013

 ----------------------------------------------------------------------
 #p CAM-B3LYP/6-311++G** nosym density=current geom=allcheck EmpiricalD
 ispersion=GD3 SCRF=(CPCM, solvent=water) IOP(10/74=10) TD=(NSTATES=10,
 ROOT=1,NONEQ) iop(3/119=0810000000) iop(3/120=0810000000)
 ----------------------------------------------------------------------

 Structure from the checkpoint file:  "checkpointCPCMES_wat.chk"
 ------
 cation
 ------
 Charge =  1 Multiplicity = 1

                          Input orientation:
 ---------------------------------------------------------------------
 Center     Atomic      Atomic             Coordinates (Angstroms)
 Number     Number       Type             X           Y           Z
 ---------------------------------------------------------------------
      1          6           0        1.724594  -12.437721    0.297496
      2          6           0        0.498730  -12.590235   -0.441716
      3          6           0       -0.186281  -11.404758   -0.814448
      4          6           0        2.223019  -11.205787    0.604263
      5          6           0        1.557709  -10.006363    0.216757
      6          6           0        0.332719  -10.173719   -0.492640
      7          8           0       -0.396181   -9.090479   -0.875024
      8          6           0        2.008082   -8.706300    0.510797
      9          6           0        3.284542   -8.502866    1.251828
     10          6           0        3.320987   -8.010333    2.570755
     11          6           0        4.554435   -7.769989    3.186637
     12          6           0        5.743713   -8.036929    2.518460
     13          6           0        5.709809   -8.530963    1.215454
     14          6           0        4.488562   -8.757404    0.586976
     15          6           0        1.245011   -7.601848    0.094300
     16          6           0        0.021340   -7.824171   -0.599994
     17          6           0       -0.798683   -6.805141   -1.022089
     18          6           0       -0.439197   -5.453229   -0.785196
     19          6           0        0.802802   -5.212691   -0.098501
     20          6           0        1.600592   -6.240026    0.311383
     21          7           0       -1.220876   -4.429089   -1.197657
     22          6           0       -2.517154   -4.676253   -1.853150
     23          6           0       -3.647106   -5.020787   -0.877789
     24          7           0        0.024626  -13.814548   -0.766994
     25          6           0       -1.250508  -13.971319   -1.488440
     26          6           0       -2.486786  -13.864083   -0.589953
     27          6           0        2.096104   -7.693025    3.376436
     28          1           0       -1.126726  -11.425793   -1.342174
     29          1           0        3.147675  -11.134042    1.162018
     30          1           0        4.566633   -7.382714    4.197620
     31          1           0        6.691640   -7.858343    3.011214
     32          1           0        6.631617   -8.734589    0.683900
     33          1           0        4.461597   -9.119033   -0.433854
     34          1           0       -1.712102   -7.077190   -1.527116
     35          1           0        2.531425   -6.015162    0.815447
     36          1           0       -2.392761   -5.466630   -2.596179
     37          1           0       -2.768746   -3.773757   -2.409564
     38          1           0       -4.560761   -5.233647   -1.438325
     39          1           0       -3.402761   -5.898825   -0.276441
     40          1           0       -3.847814   -4.188537   -0.201048
     41          1           0       -1.224318  -14.948611   -1.969896
     42          1           0       -1.292439  -13.236189   -2.294332
     43          1           0       -3.389669  -13.946085   -1.200140
     44          1           0       -2.502169  -14.664027    0.151921
     45          1           0       -2.516159  -12.908341   -0.062661
     46          6           0       -0.872436   -3.025365   -0.910148
     47          6           0       -1.228335   -2.578609    0.510779
     48          1           0       -1.406497   -2.413828   -1.636841
     49          1           0        0.189653   -2.873951   -1.109471
     50          1           0       -2.304679   -2.634020    0.681939
     51          1           0       -0.911752   -1.542971    0.657791
     52          1           0       -0.730623   -3.197700    1.260244
     53          6           0        0.694957  -15.048829   -0.317044
     54          6           0        0.379531  -15.429518    1.132280
     55          1           0       -0.684305  -15.635165    1.261157
     56          1           0        0.659633  -14.632282    1.823976
     57          1           0        0.937218  -16.329513    1.403146
     58          1           0        1.770938  -14.944760   -0.465337
     59          1           0        0.372500  -15.844078   -0.988563
     60          1           0        1.124027   -4.202799    0.103257
     61          1           0        2.270948  -13.307531    0.627013
     62          8           0        2.022842   -6.726827    4.098901
     63          8           0        1.043674   -8.537248    3.303892
     64          1           0        1.239730   -9.328789    2.783029
 ---------------------------------------------------------------------

 SCF Done:  E(RCAM-B3LYP) =  -1419.29889081     A.U. after   24 cycles

 Excitation energies and oscillator strengths:

 Excited state symmetry could not be determined.
 Excited State   1:      Singlet-?Sym    2.8162 eV  440.26 nm  f=1.2422  <S**2>=0.000
     118 ->119         0.68551
 This state for optimization and/or second-order correction.
 Total Energy, E(TD-HF/TD-KS) =  -1419.19539879
 Copying the excited state density for this state as the 1-particle RhoCI density.

 Excited state symmetry could not be determined.
 Excited State   2:      Singlet-?Sym    3.8514 eV  321.92 nm  f=0.0103  <S**2>=0.000
     116 ->119         0.32010
     117 ->119         0.59113

 Excited state symmetry could not be determined.
 Excited State   3:      Singlet-?Sym    4.5417 eV  272.99 nm  f=0.4130  <S**2>=0.000
     114 ->119        -0.12510
     116 ->119         0.55396
     117 ->119        -0.29927
     118 ->132         0.14791

 Excited state symmetry could not be determined.
 Excited State   4:      Singlet-?Sym    4.7864 eV  259.04 nm  f=0.0107  <S**2>=0.000
     113 ->119         0.51940
     115 ->119        -0.16612
     116 ->132         0.10723
     117 ->121         0.10053
     117 ->122        -0.12380
     117 ->125        -0.14610
     118 ->120        -0.13035
     118 ->133         0.20179

 Excited state symmetry could not be determined.
 Excited State   5:      Singlet-?Sym    4.9433 eV  250.81 nm  f=0.2502  <S**2>=0.000
     114 ->119         0.26604
     116 ->119        -0.13057
     117 ->119        -0.13480
     118 ->120        -0.25722
     118 ->121        -0.24928
     118 ->122         0.26220
     118 ->125         0.25957
     118 ->129        -0.10789
     118 ->132         0.12737

 Excited state symmetry could not be determined.
 Excited State   6:      Singlet-?Sym    5.1007 eV  243.07 nm  f=0.1789  <S**2>=0.000
     114 ->119         0.44303
     114 ->120         0.10824
     115 ->119        -0.27907
     116 ->119         0.11473
     118 ->120         0.17210
     118 ->121         0.13719
     118 ->122        -0.16366
     118 ->125        -0.18538

 Excited state symmetry could not be determined.
 Excited State   7:      Singlet-?Sym    5.1280 eV  241.78 nm  f=0.0492  <S**2>=0.000
     113 ->119         0.12823
     114 ->119         0.34235
     114 ->120        -0.13450
     115 ->119         0.30314
     115 ->120         0.34478
     115 ->121        -0.12709
     116 ->120         0.11336

 Excited state symmetry could not be determined.
 Excited State   8:      Singlet-?Sym    5.2934 eV  234.22 nm  f=0.0138  <S**2>=0.000
     113 ->119         0.30855
     115 ->119        -0.15514
     117 ->132         0.12550
     118 ->120         0.32153
     118 ->121        -0.23857
     118 ->122         0.17435
     118 ->133        -0.24666
     118 ->138        -0.10201

 Excited state symmetry could not be determined.
 Excited State   9:      Singlet-?Sym    5.4620 eV  226.99 nm  f=0.0395  <S**2>=0.000
     111 ->120        -0.40757
     111 ->147         0.15500
     111 ->148         0.11173
     111 ->150        -0.12436
     112 ->120        -0.13567
     114 ->119        -0.12354
     114 ->120         0.20166
     115 ->119        -0.15697
     115 ->120         0.25720
     116 ->120        -0.11094

 Excited state symmetry could not be determined.
 Excited State  10:      Singlet-?Sym    5.5482 eV  223.47 nm  f=0.0249  <S**2>=0.000
     113 ->119         0.12717
     114 ->120         0.31495
     115 ->119         0.46879
     115 ->120        -0.14994
     115 ->121         0.10334
     116 ->120        -0.19276

 Alpha  occ. eigenvalues --  -19.35865 -19.32527 -19.26968 -14.49962 -14.49894
 Alpha  occ. eigenvalues --  -10.47549 -10.42482 -10.42396 -10.40202 -10.40120
 Alpha  occ. eigenvalues --  -10.39900 -10.36461 -10.35938 -10.35413 -10.35235
 Alpha  occ. eigenvalues --  -10.34947 -10.34882 -10.34851 -10.34850 -10.34841
 Alpha  occ. eigenvalues --  -10.34826 -10.33932 -10.33894 -10.33574 -10.33263
 Alpha  occ. eigenvalues --  -10.33257 -10.33177 -10.32619 -10.32551 -10.29854
 Alpha  occ. eigenvalues --  -10.29848 -10.29826 -10.29823  -1.29909  -1.28255
 Alpha  occ. eigenvalues --   -1.19545  -1.13730  -1.13659  -1.07291  -1.04928
 Alpha  occ. eigenvalues --   -1.03988  -0.99379  -0.96197  -0.94361  -0.93970
 Alpha  occ. eigenvalues --   -0.93891  -0.93266  -0.93115  -0.91363  -0.89956
 Alpha  occ. eigenvalues --   -0.88107  -0.84188  -0.82883  -0.82025  -0.80318
 Alpha  occ. eigenvalues --   -0.79906  -0.78939  -0.77924  -0.77173  -0.76752
 Alpha  occ. eigenvalues --   -0.75832  -0.75418  -0.70981  -0.70455  -0.70137
 Alpha  occ. eigenvalues --   -0.68138  -0.66540  -0.65761  -0.65079  -0.64442
 Alpha  occ. eigenvalues --   -0.64183  -0.63331  -0.62785  -0.61463  -0.60932
 Alpha  occ. eigenvalues --   -0.60328  -0.59759  -0.59421  -0.59082  -0.58897
 Alpha  occ. eigenvalues --   -0.58567  -0.57957  -0.57711  -0.57036  -0.56837
 Alpha  occ. eigenvalues --   -0.56720  -0.56052  -0.55958  -0.54739  -0.53724
 Alpha  occ. eigenvalues --   -0.53552  -0.53154  -0.52797  -0.51971  -0.51615
 Alpha  occ. eigenvalues --   -0.51239  -0.51030  -0.50972  -0.50450  -0.50143
 Alpha  occ. eigenvalues --   -0.49834  -0.48888  -0.48792  -0.48570  -0.48216
 Alpha  occ. eigenvalues --   -0.47279  -0.47115  -0.46103  -0.45880  -0.45808
 Alpha  occ. eigenvalues --   -0.43424  -0.43202  -0.40431  -0.38829  -0.38382
 Alpha  occ. eigenvalues --   -0.37029  -0.34599  -0.30183
 Alpha virt. eigenvalues --   -0.06100   0.00400   0.02342   0.02611   0.03182
 Alpha virt. eigenvalues --    0.03198   0.03685   0.03709   0.04025   0.04377
 Alpha virt. eigenvalues --    0.04476   0.04510   0.04830   0.05154   0.05226

 Mulliken charges:
               1
     1  C   -0.254298
     2  C   -0.462780
     3  C   -0.156847
     4  C   -0.482417
     5  C   -0.155495
     6  C    0.555047
     7  O   -0.026577
     8  C    0.486091
     9  C    0.296484
    10  C    0.481755
    11  C   -0.132893
    12  C   -0.347364
    13  C   -0.458353
    14  C   -0.364592
    15  C   -0.086920
    16  C    0.592124
    17  C   -0.156489
    18  C   -0.540128
    19  C   -0.201006
    20  C   -0.438877
    21  N    0.193324
    22  C   -0.303583
    23  C   -0.435246
    24  N    0.201546
    25  C   -0.300082
    26  C   -0.435475
    27  C   -0.585318
    28  H    0.278395
    29  H    0.240415
    30  H    0.262157
    31  H    0.233768
    32  H    0.244274
    33  H    0.242507
    34  H    0.279804
    35  H    0.252387
    36  H    0.196631
    37  H    0.197086
    38  H    0.162525
    39  H    0.147820
    40  H    0.160656
    41  H    0.200318
    42  H    0.193599
    43  H    0.162040
    44  H    0.160716
    45  H    0.149288
    46  C   -0.276046
    47  C   -0.442850
    48  H    0.194651
    49  H    0.187608
    50  H    0.159618
    51  H    0.165228
    52  H    0.149934
    53  C   -0.277875
    54  C   -0.442785
    55  H    0.160464
    56  H    0.145310
    57  H    0.164581
    58  H    0.190854
    59  H    0.188966
    60  H    0.262862
    61  H    0.255217
    62  O   -0.271777
    63  O   -0.077084
    64  H    0.317109
 Sum of Mulliken charges =   1.00000

 Dipole moment (field-independent basis, Debye):
    X=              1.4315    Y=            -47.4580    Z=             -7.0899  Tot=             48.0060
 Quadrupole moment (field-independent basis, Debye-Ang):
   XX=           -144.9499   YY=            393.7796   ZZ=           -208.0096
   XY=            -31.2193   XZ=             16.4113   YZ=             44.9614

 Normal termination of Gaussian 09 at Mon Feb 17 11:53:28 2020.
