 Gaussian 09, Revision D.01,
 Gaussian 09:  ES64L-G09RevD.01 24-Apr-2013

 ----------------------------------------------------------------------
 #p CAM-B3LYP/6-311++G** geom=allcheck nosym TD=(NSTATES=30,ROOT=1) den
 sity=current iop(3/119=0810000000) iop(3/120=0810000000)
 ----------------------------------------------------------------------

 Structure from the checkpoint file:  "checkpointES.chk"
 ------
 cation
 ------
 Charge =  1 Multiplicity = 1

                          Input orientation:
 ---------------------------------------------------------------------
 Center     Atomic      Atomic             Coordinates (Angstroms)
 Number     Number       Type             X           Y           Z
 ---------------------------------------------------------------------
      1          6           0        1.703512  -12.443756    0.314678
      2          6           0        0.471573  -12.594060   -0.412269
      3          6           0       -0.215531  -11.405624   -0.765273
      4          6           0        2.207661  -11.211576    0.619707
      5          6           0        1.544831  -10.008069    0.243581
      6          6           0        0.312128  -10.173628   -0.449134
      7          8           0       -0.419882   -9.090532   -0.823369
      8          6           0        2.002673   -8.705165    0.539702
      9          6           0        3.285403   -8.501320    1.275383
     10          6           0        3.322460   -7.977018    2.583237
     11          6           0        4.554798   -7.726503    3.195687
     12          6           0        5.744891   -8.017279    2.538138
     13          6           0        5.713215   -8.543068    1.248103
     14          6           0        4.492966   -8.778075    0.621040
     15          6           0        1.237558   -7.602221    0.120007
     16          6           0        0.005911   -7.823827   -0.563172
     17          6           0       -0.813391   -6.804949   -0.988536
     18          6           0       -0.447657   -5.451697   -0.768379
     19          6           0        0.801177   -5.211819   -0.094906
     20          6           0        1.597712   -6.237001    0.319415
     21          7           0       -1.227682   -4.426744   -1.183853
     22          6           0       -2.516300   -4.670989   -1.858292
     23          6           0       -3.681677   -4.975605   -0.911276
     24          7           0       -0.004655  -13.818559   -0.746002
     25          6           0       -1.292075  -13.971002   -1.448365
     26          6           0       -2.525045  -13.886814   -0.542320
     27          6           0        2.083771   -7.622131    3.364710
     28          1           0       -1.162856  -11.423316   -1.281093
     29          1           0        3.141020  -11.144685    1.164349
     30          1           0        4.564924   -7.302889    4.192638
     31          1           0        6.692524   -7.827707    3.027787
     32          1           0        6.636410   -8.759982    0.723832
     33          1           0        4.471996   -9.155904   -0.394798
     34          1           0       -1.734323   -7.077277   -1.479899
     35          1           0        2.529193   -6.008723    0.819984
     36          1           0       -2.384904   -5.479274   -2.581312
     37          1           0       -2.739295   -3.778058   -2.442994
     38          1           0       -4.585116   -5.167806   -1.495615
     39          1           0       -3.484346   -5.853477   -0.292793
     40          1           0       -3.885096   -4.133639   -0.247476
     41          1           0       -1.266028  -14.941125   -1.945422
     42          1           0       -1.347364  -13.225616   -2.245386
     43          1           0       -3.429808  -13.987749   -1.147119
     44          1           0       -2.527269  -14.686565    0.200147
     45          1           0       -2.577357  -12.933517   -0.012398
     46          6           0       -0.855136   -3.018594   -0.938637
     47          6           0       -1.201691   -2.503950    0.461646
     48          1           0       -1.374676   -2.424361   -1.690939
     49          1           0        0.209975   -2.895689   -1.143270
     50          1           0       -2.277369   -2.536782    0.643415
     51          1           0       -0.877105   -1.464754    0.558023
     52          1           0       -0.708469   -3.086040    1.242872
     53          6           0        0.721963  -15.055040   -0.400388
     54          6           0        0.447096  -15.583501    1.010783
     55          1           0       -0.604413  -15.845541    1.141092
     56          1           0        0.709987  -14.850522    1.776688
     57          1           0        1.040417  -16.484537    1.186044
     58          1           0        1.790329  -14.888559   -0.549244
     59          1           0        0.431529  -15.804156   -1.138132
     60          1           0        1.124275   -4.201227    0.100936
     61          1           0        2.248136  -13.316416    0.641103
     62          8           0        1.935274   -6.561045    3.902870
     63          8           0        1.118914   -8.575057    3.450315
     64          1           0        1.426103   -9.413251    3.082489
 ---------------------------------------------------------------------

 SCF Done:  E(RCAM-B3LYP) =  -1419.18480705     A.U. after   24 cycles

 Excitation energies and oscillator strengths:

 Excited state symmetry could not be determined.
 Excited State   1:      Singlet-?Sym    2.9642 eV  418.28 nm  f=1.0585  <S**2>=0.000
     118 ->119         0.68449
 This state for optimization and/or second-order correction.
 Total Energy, E(TD-HF/TD-KS) =  -1419.07587580
 Copying the excited state density for this state as the 1-particle RhoCI density.

 Excited state symmetry could not be determined.
 Excited State   2:      Singlet-?Sym    3.8823 eV  319.36 nm  f=0.0072  <S**2>=0.000
     114 ->119         0.13777
     116 ->119        -0.32988
     117 ->119         0.57695

 Excited state symmetry could not be determined.
 Excited State   3:      Singlet-?Sym    4.5297 eV  273.71 nm  f=0.2885  <S**2>=0.000
     114 ->119         0.16273
     116 ->119         0.55199
     117 ->119         0.30406
     118 ->127        -0.12098

 Excited state symmetry could not be determined.
 Excited State   4:      Singlet-?Sym    4.7942 eV  258.61 nm  f=0.0149  <S**2>=0.000
     113 ->119         0.50782
     115 ->119        -0.16422
     117 ->120         0.12830
     117 ->121        -0.14096
     118 ->121        -0.19700
     118 ->129        -0.18751

 Excited state symmetry could not be determined.
 Excited State   5:      Singlet-?Sym    4.9327 eV  251.35 nm  f=0.0310  <S**2>=0.000
     114 ->119         0.46323
     117 ->119        -0.18598
     118 ->120        -0.23588
     118 ->121         0.26859
     118 ->127         0.16057

 Excited state symmetry could not be determined.
 Excited State   6:      Singlet-?Sym    5.0159 eV  247.18 nm  f=0.0297  <S**2>=0.000
     113 ->119         0.11992
     114 ->120        -0.12816
     115 ->119         0.56539
     115 ->120         0.18746
     115 ->121         0.19599

 Excited state symmetry could not be determined.
 Excited State   7:      Singlet-?Sym    5.1414 eV  241.15 nm  f=0.3711  <S**2>=0.000
     114 ->119         0.40050
     116 ->119        -0.16174
     118 ->120         0.32764
     118 ->121        -0.24280
     118 ->122         0.17294
     118 ->123        -0.20089

 Excited state symmetry could not be determined.
 Excited State   8:      Singlet-?Sym    5.3559 eV  231.49 nm  f=0.0052  <S**2>=0.000
     112 ->120         0.26737
     112 ->144         0.12670
     112 ->147         0.16098
     113 ->119        -0.18567
     115 ->119         0.21691
     115 ->120        -0.25758
     115 ->121        -0.11629
     118 ->120        -0.11682
     118 ->121        -0.17232
     118 ->129        -0.15246

 Excited state symmetry could not be determined.
 Excited State   9:      Singlet-?Sym    5.3864 eV  230.18 nm  f=0.0121  <S**2>=0.000
     112 ->119         0.11482
     112 ->120         0.20667
     112 ->147         0.11729
     113 ->119         0.29830
     115 ->120        -0.14411
     117 ->127         0.11525
     118 ->120         0.15444
     118 ->121         0.23864
     118 ->126         0.14113
     118 ->129         0.22295

 Excited state symmetry could not be determined.
 Excited State  10:      Singlet-?Sym    5.5464 eV  223.54 nm  f=0.0031  <S**2>=0.000
     112 ->120        -0.11976
     112 ->121        -0.10609
     113 ->119         0.11128
     114 ->120         0.30232
     114 ->123         0.15287
     115 ->119         0.29196
     115 ->120        -0.10837
     115 ->121        -0.25398
     116 ->120         0.21818
     116 ->123         0.10943

 Excited state symmetry could not be determined.
 Excited State  11:      Singlet-?Sym    5.6833 eV  218.16 nm  f=0.0168  <S**2>=0.000
     114 ->119        -0.14688
     116 ->119         0.15518
     117 ->119         0.13366
     117 ->126         0.10563
     117 ->129         0.13604
     118 ->122         0.27382
     118 ->123        -0.28949
     118 ->126        -0.14088
     118 ->127         0.35874
     118 ->132         0.10829

 Excited state symmetry could not be determined.
 Excited State  12:      Singlet-?Sym    5.8856 eV  210.66 nm  f=0.6855  <S**2>=0.000
     111 ->119        -0.21727
     113 ->119         0.18557
     117 ->120        -0.23841
     117 ->121         0.25452
     117 ->122        -0.20175
     117 ->123         0.23879
     118 ->120        -0.20444
     118 ->121        -0.22844
     118 ->150        -0.13509

 Excited state symmetry could not be determined.
 Excited State  13:      Singlet-?Sym    5.9444 eV  208.57 nm  f=0.0042  <S**2>=0.000
     118 ->120        -0.23253
     118 ->122         0.45637
     118 ->123         0.20658
     118 ->124         0.13289
     118 ->128         0.14476
     118 ->131         0.19526

 Excited state symmetry could not be determined.
 Excited State  14:      Singlet-?Sym    6.0249 eV  205.79 nm  f=0.0329  <S**2>=0.000
     112 ->119         0.27570
     112 ->120         0.20579
     114 ->120         0.16511
     114 ->121         0.22897
     115 ->120         0.31923
     115 ->123         0.17543
     116 ->120         0.11897
     116 ->121         0.16853

 Excited state symmetry could not be determined.
 Excited State  15:      Singlet-?Sym    6.1390 eV  201.96 nm  f=0.1042  <S**2>=0.000
     106 ->119        -0.12050
     111 ->119        -0.21666
     112 ->119        -0.18754
     117 ->123         0.10033
     117 ->127        -0.10099
     118 ->120         0.30807
     118 ->121         0.26105
     118 ->123         0.16468
     118 ->124         0.11876
     118 ->125        -0.10701
     118 ->126        -0.17294
     118 ->129        -0.18189

 Excited state symmetry could not be determined.
 Excited State  16:      Singlet-?Sym    6.2075 eV  199.73 nm  f=0.0158  <S**2>=0.000
     106 ->119         0.32104
     107 ->119        -0.10510
     108 ->119         0.10627
     109 ->119         0.12503
     112 ->119         0.41165
     112 ->120        -0.10723
     115 ->120        -0.12771
     116 ->121        -0.10907
     118 ->120         0.10494
     118 ->121         0.12023

 Excited state symmetry could not be determined.
 Excited State  17:      Singlet-?Sym    6.2900 eV  197.11 nm  f=0.0076  <S**2>=0.000
      99 ->119        -0.10045
     100 ->119        -0.12639
     106 ->119         0.41456
     108 ->119         0.12657
     109 ->119         0.16957
     112 ->119        -0.40447

 Excited state symmetry could not be determined.
 Excited State  18:      Singlet-?Sym    6.3868 eV  194.13 nm  f=0.2332  <S**2>=0.000
     116 ->120        -0.14491
     116 ->121         0.15359
     116 ->122        -0.10165
     117 ->120         0.11813
     117 ->121        -0.10466
     117 ->122        -0.19101
     117 ->127        -0.13230
     118 ->124         0.27169
     118 ->125        -0.15072
     118 ->127         0.18104
     118 ->129         0.15046
     118 ->135        -0.11164
     118 ->139         0.14233

 Excited state symmetry could not be determined.
 Excited State  19:      Singlet-?Sym    6.4036 eV  193.62 nm  f=0.3518  <S**2>=0.000
     111 ->119         0.10756
     113 ->129        -0.11490
     114 ->121         0.10759
     116 ->120         0.20761
     116 ->121        -0.20224
     117 ->121         0.13650
     117 ->122        -0.10368
     117 ->123        -0.13682
     117 ->124        -0.12904
     117 ->127         0.12234
     118 ->124         0.26927
     118 ->126         0.15450
     118 ->129        -0.11902
     118 ->139         0.10016

 Excited state symmetry could not be determined.
 Excited State  20:      Singlet-?Sym    6.5513 eV  189.25 nm  f=0.0200  <S**2>=0.000
     111 ->119         0.26358
     117 ->121         0.10927
     118 ->120         0.19558
     118 ->121        -0.18473
     118 ->123         0.39509
     118 ->125         0.16111
     118 ->126        -0.10689
     118 ->127         0.23025
     118 ->129         0.10055

 Excited state symmetry could not be determined.
 Excited State  21:      Singlet-?Sym    6.6699 eV  185.89 nm  f=0.0601  <S**2>=0.000
     111 ->119         0.42507
     117 ->120        -0.11559
     117 ->123         0.16135
     118 ->123        -0.17218
     118 ->125        -0.26197
     118 ->126        -0.24723

 Excited state symmetry could not be determined.
 Excited State  22:      Singlet-?Sym    6.7228 eV  184.42 nm  f=0.3272  <S**2>=0.000
     114 ->120         0.13944
     114 ->121         0.11807
     115 ->120        -0.10182
     115 ->121         0.12510
     115 ->123        -0.11326
     116 ->122        -0.10699
     117 ->121         0.18533
     117 ->122         0.16702
     117 ->129         0.16248
     118 ->124         0.28102
     118 ->126        -0.17215
     118 ->127        -0.13799
     118 ->129         0.12629

 Excited state symmetry could not be determined.
 Excited State  23:      Singlet-?Sym    6.7270 eV  184.31 nm  f=0.4166  <S**2>=0.000
     111 ->119        -0.12231
     114 ->120        -0.11190
     114 ->121        -0.14936
     115 ->120         0.14824
     116 ->129         0.14333
     117 ->121        -0.17788
     117 ->126        -0.17218
     118 ->124         0.25435
     118 ->125         0.21808
     118 ->126        -0.13946
     118 ->129         0.16428
     118 ->131        -0.14318

 Excited state symmetry could not be determined.
 Excited State  24:      Singlet-?Sym    6.7829 eV  182.79 nm  f=0.0516  <S**2>=0.000
     115 ->121        -0.13679
     116 ->120        -0.10661
     116 ->121         0.12630
     117 ->124         0.10297
     117 ->126         0.10144
     118 ->124         0.14016
     118 ->125         0.26197
     118 ->126         0.14251
     118 ->128         0.28124
     118 ->129        -0.23315

 Excited state symmetry could not be determined.
 Excited State  25:      Singlet-?Sym    6.7981 eV  182.38 nm  f=0.0756  <S**2>=0.000
     107 ->119         0.16678
     110 ->119         0.26011
     114 ->121         0.14233
     115 ->120        -0.21339
     116 ->120         0.15177
     116 ->121         0.25533
     116 ->122         0.11794
     116 ->123        -0.13715
     118 ->128        -0.14374

 Excited state symmetry could not be determined.
 Excited State  26:      Singlet-?Sym    6.8480 eV  181.05 nm  f=0.2587  <S**2>=0.000
     107 ->119         0.10514
     114 ->120         0.18695
     114 ->121        -0.12650
     114 ->123         0.10224
     115 ->121         0.30274
     115 ->123        -0.13383
     115 ->124         0.10616
     115 ->125        -0.10209
     116 ->120         0.20971
     116 ->123         0.11574
     118 ->128         0.17531

 Excited state symmetry could not be determined.
 Excited State  27:      Singlet-?Sym    6.8641 eV  180.63 nm  f=0.0757  <S**2>=0.000
     110 ->119        -0.18023
     111 ->119         0.15154
     114 ->120         0.13330
     115 ->121         0.11516
     117 ->122        -0.10933
     117 ->123         0.10679
     117 ->127        -0.17116
     118 ->122         0.10999
     118 ->125         0.21232
     118 ->128        -0.12094
     118 ->129        -0.19440
     118 ->131        -0.18368
     118 ->132        -0.10365
     118 ->134         0.10896

 Excited state symmetry could not be determined.
 Excited State  28:      Singlet-?Sym    6.9362 eV  178.75 nm  f=0.0557  <S**2>=0.000
     110 ->119        -0.16165
     114 ->121         0.12701
     116 ->122         0.19296
     116 ->124         0.10444
     117 ->120         0.11140
     117 ->122        -0.19775
     117 ->125        -0.16948
     117 ->128        -0.14698
     118 ->126        -0.14416
     118 ->127        -0.10484
     118 ->128         0.19871
     118 ->129         0.13140
     118 ->132         0.15006

 Excited state symmetry could not be determined.
 Excited State  29:      Singlet-?Sym    6.9665 eV  177.97 nm  f=0.0151  <S**2>=0.000
     110 ->119         0.37360
     114 ->121        -0.12243
     115 ->120         0.11630
     116 ->120        -0.13945
     116 ->123         0.17686
     117 ->121         0.10977
     117 ->123        -0.10741
     117 ->124        -0.15075
     117 ->128        -0.12401
     118 ->126        -0.12640
     118 ->127        -0.18215
     118 ->130         0.11734
     118 ->131        -0.11876

 Excited state symmetry could not be determined.
 Excited State  30:      Singlet-?Sym    6.9815 eV  177.59 nm  f=0.0174  <S**2>=0.000
     110 ->119         0.25982
     114 ->123         0.11108
     116 ->120         0.10091
     116 ->121        -0.23431
     116 ->123        -0.17039
     116 ->127         0.16083
     117 ->120         0.18369
     117 ->123         0.10516
     117 ->126         0.14881
     117 ->127        -0.20163

 Alpha  occ. eigenvalues --  -19.45136 -19.39800 -19.33948 -14.59245 -14.59209
 Alpha  occ. eigenvalues --  -10.54443 -10.51820 -10.51685 -10.49561 -10.49387
 Alpha  occ. eigenvalues --  -10.49229 -10.45204 -10.44739 -10.44541 -10.44514
 Alpha  occ. eigenvalues --  -10.44411 -10.44371 -10.44363 -10.44179 -10.44081
 Alpha  occ. eigenvalues --  -10.43964 -10.42890 -10.42888 -10.42376 -10.42317
 Alpha  occ. eigenvalues --  -10.42263 -10.42103 -10.41941 -10.41818 -10.39022
 Alpha  occ. eigenvalues --  -10.38980 -10.38754 -10.38493  -1.39216  -1.35331
 Alpha  occ. eigenvalues --   -1.26924  -1.22971  -1.22817  -1.16216  -1.14217
 Alpha  occ. eigenvalues --   -1.12840  -1.08510  -1.05491  -1.03415  -1.03089
 Alpha  occ. eigenvalues --   -1.02705  -1.02313  -1.02060  -1.00606  -0.99088
 Alpha  occ. eigenvalues --   -0.97266  -0.93213  -0.92126  -0.90817  -0.89159
 Alpha  occ. eigenvalues --   -0.88751  -0.88006  -0.87052  -0.86035  -0.84995
 Alpha  occ. eigenvalues --   -0.84556  -0.84293  -0.79872  -0.79700  -0.79205
 Alpha  occ. eigenvalues --   -0.77209  -0.75838  -0.75009  -0.74422  -0.73242
 Alpha  occ. eigenvalues --   -0.73006  -0.72584  -0.71347  -0.70300  -0.69276
 Alpha  occ. eigenvalues --   -0.69169  -0.68366  -0.68141  -0.68105  -0.67769
 Alpha  occ. eigenvalues --   -0.67226  -0.66732  -0.66283  -0.66197  -0.66036
 Alpha  occ. eigenvalues --   -0.65862  -0.65388  -0.65109  -0.63004  -0.62926
 Alpha  occ. eigenvalues --   -0.62388  -0.62345  -0.61739  -0.60972  -0.60611
 Alpha  occ. eigenvalues --   -0.60200  -0.59998  -0.59917  -0.59471  -0.59139
 Alpha  occ. eigenvalues --   -0.58584  -0.57919  -0.57891  -0.57576  -0.57335
 Alpha  occ. eigenvalues --   -0.56368  -0.55736  -0.55238  -0.54895  -0.53845
 Alpha  occ. eigenvalues --   -0.52476  -0.50313  -0.49661  -0.47607  -0.46726
 Alpha  occ. eigenvalues --   -0.46120  -0.43857  -0.39517
 Alpha virt. eigenvalues --   -0.15334  -0.07414  -0.06587  -0.05901  -0.05325
 Alpha virt. eigenvalues --   -0.04905  -0.04510  -0.04258  -0.03945  -0.03712
 Alpha virt. eigenvalues --   -0.03509  -0.03273  -0.03095  -0.02735  -0.02670

 Mulliken charges:
               1
     1  C   -0.212547
     2  C   -0.446141
     3  C   -0.186459
     4  C   -0.464480
     5  C   -0.214368
     6  C    0.555424
     7  O   -0.009733
     8  C    0.400288
     9  C    0.303040
    10  C    0.460823
    11  C   -0.072165
    12  C   -0.296819
    13  C   -0.415892
    14  C   -0.394997
    15  C   -0.078704
    16  C    0.677443
    17  C   -0.167321
    18  C   -0.565428
    19  C   -0.162239
    20  C   -0.428854
    21  N    0.191334
    22  C   -0.293177
    23  C   -0.413002
    24  N    0.205966
    25  C   -0.299299
    26  C   -0.408531
    27  C   -0.701951
    28  H    0.251410
    29  H    0.235370
    30  H    0.260801
    31  H    0.221328
    32  H    0.226185
    33  H    0.216731
    34  H    0.253077
    35  H    0.247029
    36  H    0.177917
    37  H    0.184053
    38  H    0.165707
    39  H    0.148630
    40  H    0.159812
    41  H    0.180707
    42  H    0.180470
    43  H    0.166599
    44  H    0.159036
    45  H    0.148580
    46  C   -0.271735
    47  C   -0.419002
    48  H    0.179286
    49  H    0.173598
    50  H    0.154707
    51  H    0.170093
    52  H    0.159899
    53  C   -0.265784
    54  C   -0.420626
    55  H    0.158309
    56  H    0.148442
    57  H    0.172488
    58  H    0.170541
    59  H    0.181140
    60  H    0.234020
    61  H    0.219722
    62  O   -0.153232
    63  O    0.012990
    64  H    0.249493
 Sum of Mulliken charges =   1.00000

 Dipole moment (field-independent basis, Debye):
    X=              1.8076    Y=            -45.8312    Z=             -4.4175  Tot=             46.0791
 Quadrupole moment (field-independent basis, Debye-Ang):
   XX=           -143.4674   YY=            362.4131   ZZ=           -198.2621
   XY=            -30.8712   XZ=             20.5076   YZ=             26.1989

 Normal termination of Gaussian 09 at Fri May  1 22:51:05 2020.
